date Sat Jan 24 10:46:07 PM GMT 2026
hostname debian
system Linux debian 6.1.0-42-arm64 #1 SMP Debian 6.1.159-1 (2025-12-30) aarch64 GNU/Linux
user crystal
output data in /home/crystal/QMMC26/HA/diamond/diamond.out
input data in /home/crystal/QMMC26/HA/diamond/diamond.d12
temporary directory /home/crystal/Scratch
external geometry input from /home/crystal/QMMC26/HA/diamond/diamond.gui
external geometry input saved in /home/crystal/QMMC26/HA/diamond/diamond_inp.gui
DIAMOND - BASIS SET 6-21 MODIFIED + POLARIZATION
CRYSTAL
0 0 0
227
3.57052187
1
6  0.125 0.125 0.125
FREQCALC
END
END
6 4
0 0 6 2.0 1.0
 3048.0    0.001826
  456.4    0.01406
  103.7    0.06876
   29.23   0.2304
    9.349  0.4685
    3.189  0.3628
0 1 2 4.0 1.0
    3.665 -0.3959 0.2365
    0.7705 1.216  0.8606
0 1 1 0.0 1.0
    0.216  1.0    1.0
0 3 1 0.0 1.0
    0.8    1.0
99 0
END
SHRINK
8 8
END

         
 *******************************************************************************
 *                                                                             *
 *                               CRYSTAL23                                     *
 *                      public : 1.0.1 - October 2022                          *
 *                       HTTP://WWW.CRYSTAL.UNITO.IT                           *
 *                                                                             *
 *                              MAIN AUTHORS                                   *
 *                                                                             *
 *  R. DOVESI(1,11), V.R. SAUNDERS(2), C. ROETTI(1,11), R. ORLANDO(1,11),      *
 *  C.M. ZICOVICH-WILSON(1,3), F. PASCALE(4), B. CIVALLERI(1,11),              *
 *  K. DOLL(5), N.M. HARRISON(6), I.J. BUSH(7), Ph. D'ARCO(8),                 *
 *  M. LLUNELL(9), M. CAUSA'(10), Y. NOEL(8), L. MASCHIO(1,11), A. ERBA(1,11)  *
 *  M. RE'RAT(14), S. CASASSA(1,11), B.G. SEARLE(2), J.K. DESMARAIS(1)         *
 *                                                                             *
 *        CONTRIBUTIONS TO THE CODE HAVE ALSO BEEN GIVEN BY                    *
 *                                                                             *
 *  M. FERRABONE(1,11), M. DE LA PIERRE(1,11), M. FERRERO(1,11),               *
 *  J. BAIMA(1,11), E. ALBANESE(1,11), M.F. PEINTINGER(12), R. BAST(13),       *
 *  B. KIRTMAN(15), V. LACIVITA(1,11), R. DEMICHELIS(1,16)                     *
 *  G. BRANDEBURG(17), S. SALUSTRO(1,11), G. SANSONE(1,11)                     *
 *  M.T. RUGGIERO(18), L.E. DAGA(1), L. DONA'(1), A. COSSARD(1)                *
 *                                                                             *
 * (1) THEORETICAL CHEMISTRY GROUP - UNIVERSITA' DI TORINO - TORINO (ITALY)    *
 * (2) SCIENTIFIC COMPUTING DEPARTMENT - STFC DARESBURY (UK)                   *
 * (3) UNIVERSIDAD AUTONOMA DEL ESTADO DE MORELOS - CUERNAVACA (MEXICO)        *
 * (4) UNIVERSITE' DE LORRAINE - NANCY (FRANCE)                                *
 * (5) UNIVERSITAET STUTTGART- STUTTGART (GERMANY)                             *
 * (6) IMPERIAL COLLEGE - LONDON (UK)                                          *
 * (7) SCIENTIFIC COMPUTING DEPARTMENT - STFC RAL (UK)                         *
 * (8) UPMC - SORBONNE UNIVERSITES - PARIS (FRANCE)                            *
 * (9) UNIVERSIDAD DE BARCELONA - BARCELONA (SPAIN)                            *
 *(10) UNIVERSITA' DI NAPOLI "FEDERICO II" - NAPOLI (ITALY)                    *
 *(11) NIS - NANOSTRUCTURED INTERFACES AND SURFACES - TORINO (ITALY)           *
 *(12) MPI FUER CHEMISCHE ENERGIEKONVERSION - MUELHEIM AN DER RUHR (GERMANY)   *
 *(13) UNIVERSITY OF TROMSO - TROMSO (NORWAY)                                  *
 *(14) UNIVERSITE' DE PAU ET DES PAYS DE L'ADOUR - PAU (FRANCE)                *
 *(15) UNIVERSITY OF CALIFORNIA SANTA BARBARA - SANTA BARBARA (USA)            *
 *(16) CURTIN UNIVERSITY - PERTH (AUSTRALIA)                                   *
 *(17) UNIVERSITY COLLEGE LONDON - LONDON (UK)                                 *
 *(18) UNIVERSITY OF VERMONT - BURLINGTON (USA)                                *
 *                                                                             *
 *******************************************************************************
 EEEEEEEEEE STARTING  DATE 24 01 2026 TIME 22:46:07.1
 DIAMOND - BASIS SET 6-21 MODIFIED + POLARIZATION                                

 CRYSTAL CALCULATION
 (INPUT ACCORDING TO THE INTERNATIONAL TABLES FOR X-RAY CRYSTALLOGRAPHY)
 CRYSTAL FAMILY                       :  CUBIC       
 CRYSTAL CLASS  (GROTH - 1921)        :  CUBIC HEXAKISOCTAHEDRAL              

 SPACE GROUP (CENTROSYMMETRIC)        :  F D 3 M         

 LATTICE PARAMETERS  (ANGSTROMS AND DEGREES) - CONVENTIONAL CELL
        A           B           C        ALPHA        BETA       GAMMA
     3.57052     3.57052     3.57052    90.00000    90.00000    90.00000


 NUMBER OF IRREDUCIBLE ATOMS IN THE CONVENTIONAL CELL:    1

 INPUT COORDINATES

 ATOM AT. N.              COORDINATES
   1   6     1.250000000000E-01  1.250000000000E-01  1.250000000000E-01

 *******************************************************************************

 << INFORMATION >>: FROM NOW ON, ALL COORDINATES REFER TO THE PRIMITIVE CELL

 *******************************************************************************

 LATTICE PARAMETERS  (ANGSTROMS AND DEGREES) - PRIMITIVE CELL
       A          B          C        ALPHA      BETA     GAMMA        VOLUME
    2.52474    2.52474    2.52474    60.00000  60.00000  60.00000     11.379812

 COORDINATES OF THE EQUIVALENT ATOMS (FRACTIONAL UNITS)

 N. ATOM EQUIV AT. N.          X                  Y                  Z

   1   1   1    6 C     1.25000000000E-01  1.25000000000E-01  1.25000000000E-01
   2   1   2    6 C    -1.25000000000E-01 -1.25000000000E-01 -1.25000000000E-01

 NUMBER OF SYMMETRY OPERATORS         :   48
 *******************************************************************************
 * GEOMETRY EDITING - INPUT COORDINATES ARE GIVEN IN ANGSTROM         
 *******************************************************************************

 GEOMETRY NOW FULLY CONSISTENT WITH THE GROUP

 FRQFRQFRQFRQFRQFRQFRQFRQFRQFRQFRQFRQFRQFRQFRQFRQFRQFRQFRQFRQFRQFRQFRQFRQFRQFRQ

                       FREQUENCY CALCULATION

 INFORMATION **** INPFREQ **** NEW DEFAULT - IMPOSING ECKART CONDITIONS TO THE HESSIAN

 GCALCO - MAX INDICES DIRECT LATTICE VECTOR    14    14    14
 NO.OF VECTORS CREATED 6999 STARS  105 RMAX    50.49223 BOHR

 GEOMETRY FOR WAVE FUNCTION - DIMENSIONALITY OF THE SYSTEM    3
 (NON PERIODIC DIRECTION: LATTICE PARAMETER FORMALLY SET TO 500)
 *******************************************************************************
 LATTICE PARAMETERS (ANGSTROMS AND DEGREES) - BOHR = 0.5291772083 ANGSTROM
 PRIMITIVE CELL - CENTRING CODE 5/0 VOLUME=    11.379812 - DENSITY  3.502 g/cm^3
         A              B              C           ALPHA      BETA       GAMMA 
     2.52474023     2.52474023     2.52474023    60.000000  60.000000  60.000000
 *******************************************************************************
 ATOMS IN THE ASYMMETRIC UNIT    1 - ATOMS IN THE UNIT CELL:    2
     ATOM                 X/A                 Y/B                 Z/C    
 *******************************************************************************
      1 T   6 C     1.250000000000E-01  1.250000000000E-01  1.250000000000E-01
      2 F   6 C    -1.250000000000E-01 -1.250000000000E-01 -1.250000000000E-01

 TRANSFORMATION MATRIX PRIMITIVE-CRYSTALLOGRAPHIC CELL
 -1.0000  1.0000  1.0000  1.0000 -1.0000  1.0000  1.0000  1.0000 -1.0000

 *******************************************************************************
 CRYSTALLOGRAPHIC CELL (VOLUME=         45.51924946)
         A              B              C           ALPHA      BETA       GAMMA 
     3.57052187     3.57052187     3.57052187    90.000000  90.000000  90.000000

 COORDINATES IN THE CRYSTALLOGRAPHIC CELL
     ATOM                 X/A                 Y/B                 Z/C    
 *******************************************************************************
      1 T   6 C     1.250000000000E-01  1.250000000000E-01  1.250000000000E-01
      2 F   6 C    -1.250000000000E-01 -1.250000000000E-01 -1.250000000000E-01

 T = ATOM BELONGING TO THE ASYMMETRIC UNIT

 ****   48 SYMMOPS - TRANSLATORS IN FRACTIONAL UNITS
 **** MATRICES AND TRANSLATORS IN THE CRYSTALLOGRAPHIC REFERENCE FRAME
   V INV                    ROTATION MATRICES                   TRANSLATORS
   1   1  1.00  0.00  0.00  0.00  1.00  0.00  0.00  0.00  1.00  0.00  0.00  0.00
   2   2  0.00  1.00 -0.00  1.00  0.00  0.00 -1.00 -1.00 -1.00  0.00 -0.00  0.50
   3   3 -1.00 -1.00 -1.00 -0.00 -0.00  1.00  0.00  1.00 -0.00  0.50  0.00 -0.00
   4   4 -0.00 -0.00  1.00 -1.00 -1.00 -1.00  1.00  0.00  0.00  0.00  0.50 -0.00
   5   6  0.00 -0.00  1.00  1.00  0.00  0.00 -0.00  1.00 -0.00  0.00  0.00  0.00
   6   5  0.00  1.00 -0.00 -0.00 -0.00  1.00  1.00  0.00  0.00  0.00  0.00  0.00
   7   8  1.00  0.00  0.00  0.00 -0.00  1.00 -1.00 -1.00 -1.00  0.00 -0.00  0.50
   8   7  1.00  0.00  0.00 -1.00 -1.00 -1.00  0.00  1.00 -0.00  0.00  0.50 -0.00
   9  10 -1.00 -1.00 -1.00 -0.00  1.00 -0.00  1.00  0.00  0.00  0.50  0.00 -0.00
  10   9 -0.00 -0.00  1.00  0.00  1.00 -0.00 -1.00 -1.00 -1.00  0.00 -0.00  0.50
  11  12 -0.00  1.00 -0.00 -1.00 -1.00 -1.00  0.00 -0.00  1.00  0.00  0.50 -0.00
  12  11 -1.00 -1.00 -1.00  1.00  0.00  0.00 -0.00 -0.00  1.00  0.50  0.00 -0.00
  13  13 -0.00 -1.00  0.00 -1.00 -0.00 -0.00  0.00  0.00 -1.00  0.00  0.00  0.00
  14  14 -1.00 -0.00 -0.00 -0.00 -1.00  0.00  1.00  1.00  1.00  0.00 -0.00  0.50
  15  16  0.00  0.00 -1.00  1.00  1.00  1.00 -0.00 -1.00  0.00  0.00  0.50 -0.00
  16  15  1.00  1.00  1.00  0.00  0.00 -1.00 -1.00 -0.00 -0.00  0.50  0.00 -0.00
  17  17 -1.00 -0.00 -0.00 -0.00  0.00 -1.00  0.00 -1.00  0.00  0.00  0.00  0.00
  18  18 -0.00  0.00 -1.00  0.00 -1.00  0.00 -1.00 -0.00 -0.00  0.00  0.00  0.00
  19  21 -0.00  0.00 -1.00 -1.00 -0.00 -0.00  1.00  1.00  1.00  0.00 -0.00  0.50
  20  22  1.00  1.00  1.00 -1.00 -0.00 -0.00  0.00 -1.00  0.00  0.50  0.00 -0.00
  21  19  0.00 -1.00  0.00  1.00  1.00  1.00 -1.00 -0.00 -0.00  0.00  0.50 -0.00
  22  20  0.00 -1.00  0.00 -0.00  0.00 -1.00  1.00  1.00  1.00  0.00 -0.00  0.50
  23  23  1.00  1.00  1.00  0.00 -1.00  0.00 -0.00  0.00 -1.00  0.50  0.00 -0.00
  24  24 -1.00 -0.00 -0.00  1.00  1.00  1.00 -0.00  0.00 -1.00  0.00  0.50 -0.00
  25  25 -1.00 -0.00 -0.00 -0.00 -1.00  0.00  0.00  0.00 -1.00  0.00  0.00  0.00
  26  26 -0.00 -1.00  0.00 -1.00 -0.00 -0.00  1.00  1.00  1.00  0.00 -0.00  0.50
  27  27  1.00  1.00  1.00  0.00  0.00 -1.00 -0.00 -1.00  0.00  0.50  0.00 -0.00
  28  28  0.00  0.00 -1.00  1.00  1.00  1.00 -1.00 -0.00 -0.00  0.00  0.50 -0.00
  29  30 -0.00  0.00 -1.00 -1.00 -0.00 -0.00  0.00 -1.00  0.00  0.00  0.00  0.00
  30  29 -0.00 -1.00  0.00  0.00  0.00 -1.00 -1.00 -0.00 -0.00  0.00  0.00  0.00
  31  32 -1.00 -0.00 -0.00 -0.00  0.00 -1.00  1.00  1.00  1.00  0.00 -0.00  0.50
  32  31 -1.00 -0.00 -0.00  1.00  1.00  1.00 -0.00 -1.00  0.00  0.00  0.50 -0.00
  33  34  1.00  1.00  1.00  0.00 -1.00  0.00 -1.00 -0.00 -0.00  0.50  0.00 -0.00
  34  33  0.00  0.00 -1.00 -0.00 -1.00  0.00  1.00  1.00  1.00  0.00 -0.00  0.50
  35  36  0.00 -1.00  0.00  1.00  1.00  1.00 -0.00  0.00 -1.00  0.00  0.50 -0.00
  36  35  1.00  1.00  1.00 -1.00 -0.00 -0.00  0.00  0.00 -1.00  0.50  0.00 -0.00
  37  37  0.00  1.00 -0.00  1.00  0.00  0.00 -0.00 -0.00  1.00  0.00  0.00  0.00
  38  38  1.00  0.00  0.00  0.00  1.00 -0.00 -1.00 -1.00 -1.00  0.00 -0.00  0.50
  39  40 -0.00 -0.00  1.00 -1.00 -1.00 -1.00  0.00  1.00 -0.00  0.00  0.50 -0.00
  40  39 -1.00 -1.00 -1.00 -0.00 -0.00  1.00  1.00  0.00  0.00  0.50  0.00 -0.00
  41  41  1.00  0.00  0.00  0.00 -0.00  1.00 -0.00  1.00 -0.00  0.00  0.00  0.00
  42  42  0.00 -0.00  1.00 -0.00  1.00 -0.00  1.00  0.00  0.00  0.00  0.00  0.00
  43  45  0.00 -0.00  1.00  1.00  0.00  0.00 -1.00 -1.00 -1.00  0.00 -0.00  0.50
  44  46 -1.00 -1.00 -1.00  1.00  0.00  0.00 -0.00  1.00 -0.00  0.50  0.00 -0.00
  45  43 -0.00  1.00 -0.00 -1.00 -1.00 -1.00  1.00  0.00  0.00  0.00  0.50 -0.00
  46  44 -0.00  1.00 -0.00  0.00 -0.00  1.00 -1.00 -1.00 -1.00  0.00 -0.00  0.50
  47  47 -1.00 -1.00 -1.00 -0.00  1.00 -0.00  0.00 -0.00  1.00  0.50  0.00 -0.00
  48  48  1.00  0.00  0.00 -1.00 -1.00 -1.00  0.00 -0.00  1.00  0.00  0.50 -0.00

 DIRECT LATTICE VECTORS CARTESIAN COMPONENTS (ANGSTROM)
          X                    Y                    Z
   0.000000000000E+00   0.178526093500E+01   0.178526093500E+01
   0.178526093500E+01   0.000000000000E+00   0.178526093500E+01
   0.178526093500E+01   0.178526093500E+01   0.000000000000E+00


 CARTESIAN COORDINATES - PRIMITIVE CELL
 *******************************************************************************
 *      ATOM          X(ANGSTROM)         Y(ANGSTROM)         Z(ANGSTROM)
 *******************************************************************************
    1     6 C     4.463152337500E-01  4.463152337500E-01  4.463152337500E-01
    2     6 C    -4.463152337500E-01 -4.463152337500E-01 -4.463152337500E-01

 *******************************************************************************
 LOCAL ATOMIC FUNCTIONS BASIS SET
 *******************************************************************************
   ATOM   X(AU)   Y(AU)   Z(AU)  N. TYPE  EXPONENT  S COEF   P COEF   D/F/G COEF
 *******************************************************************************
   1 C    0.843   0.843   0.843
                                  1 S  
                                         3.048E+03 1.826E-03 0.000E+00 0.000E+00
                                         4.564E+02 1.406E-02 0.000E+00 0.000E+00
                                         1.037E+02 6.876E-02 0.000E+00 0.000E+00
                                         2.923E+01 2.304E-01 0.000E+00 0.000E+00
                                         9.349E+00 4.685E-01 0.000E+00 0.000E+00
                                         3.189E+00 3.628E-01 0.000E+00 0.000E+00
                           2-     5 SP 
                                         3.665E+00-3.959E-01 2.365E-01 0.000E+00
                                         7.705E-01 1.216E+00 8.606E-01 0.000E+00
                           6-     9 SP 
                                         2.160E-01 1.000E+00 1.000E+00 0.000E+00
                          10-    14 D  
                                         8.000E-01 0.000E+00 0.000E+00 1.000E+00
   2 C   -0.843  -0.843  -0.843
 INFORMATION **** SET_MPP **** PCRYSTAL CALCULATION
 INFORMATION **** READM2 **** NEW DEFAULT: FOCK/KS MATRIX MIXING SET TO 30 %
 INFORMATION **** READM2 **** NEW DEFAULT: FULL DIRECT SCF MODE
 INFORMATION **** READM2 **** NEW DEFAULT: COULOMB BIPOLAR BUFFER SET TO 32 Mb
 INFORMATION **** READM2 **** NEW DEFAULT: EXCHANGE BIPOLAR BUFFER SET TO 32 Mb
 *******************************************************************************
 N. OF ATOMS PER CELL         2  COULOMB OVERLAP TOL         (T1) 10**   -6
 NUMBER OF SHELLS             8  COULOMB PENETRATION TOL     (T2) 10**   -6
 NUMBER OF AO                28  EXCHANGE OVERLAP TOL        (T3) 10**   -6
 N. OF ELECTRONS PER CELL    12  EXCHANGE PSEUDO OVP (F(G))  (T4) 10**   -6
 CORE ELECTRONS PER CELL      4  EXCHANGE PSEUDO OVP (P(G))  (T5) 10**  -12
 N. OF SYMMETRY OPERATORS    48  POLE ORDER IN MONO ZONE                  4
 *******************************************************************************
 TYPE OF CALCULATION :  RESTRICTED CLOSED SHELL
 HARTREE-FOCK HAMILTONIAN

 CAPPA:IS1  8;IS2  8;IS3  8; K PTS MONK NET  29; SYMMOPS:K SPACE  48;G SPACE  48

 *******************************************************************************
 MAX NUMBER OF SCF CYCLES      50  CONVERGENCE ON DELTAP        10**-16
 WEIGHT OF F(I) IN F(I+1)      30% CONVERGENCE ON ENERGY        10**-10
 SHRINK. FACT.(MONKH.)    8  8  8  NUMBER OF K POINTS IN THE IBZ     29
 SHRINKING FACTOR(GILAT NET)    8  NUMBER OF K POINTS(GILAT NET)     29
 *******************************************************************************
 *** K POINTS COORDINATES (OBLIQUE COORDINATES IN UNITS OF IS =  8)
   1-R(  0  0  0)   2-C(  1  0  0)   3-C(  2  0  0)   4-C(  3  0  0)
   5-R(  4  0  0)   6-C(  1  1  0)   7-C(  2  1  0)   8-C(  3  1  0)
   9-C(  4  1  0)  10-C(  5  1  0)  11-C(  6  1  0)  12-C(  7  1  0)
  13-C(  2  2  0)  14-C(  3  2  0)  15-C(  4  2  0)  16-C(  5  2  0)
  17-C(  6  2  0)  18-C(  3  3  0)  19-C(  4  3  0)  20-C(  5  3  0)
  21-R(  4  4  0)  22-C(  3  2  1)  23-C(  4  2  1)  24-C(  5  2  1)
  25-C(  4  3  1)  26-C(  5  3  1)  27-C(  6  3  1)  28-C(  5  4  1)
  29-C(  6  4  2)

 DIRECT LATTICE VECTORS COMPON. (A.U.)     RECIP. LATTICE VECTORS COMPON. (A.U.) 
        X            Y            Z              X            Y            Z
    0.0000000    3.3736542    3.3736542     -0.9312136    0.9312136    0.9312136
    3.3736542    0.0000000    3.3736542      0.9312136   -0.9312136    0.9312136
    3.3736542    3.3736542    0.0000000      0.9312136    0.9312136   -0.9312136

 DISK SPACE FOR EIGENVECTORS (FTN 10)       43120 REALS

 SYMMETRY ADAPTION OF THE BLOCH FUNCTIONS ENABLED
 TTTTTTTTTTTTTTTTTTTTTTTTTTTTTT gordsh1     TELAPSE        0.06 TCPU        0.06

 MATRIX SIZE: P(G)   63628, F(G)   12062, P(G) IRR    1846, F(G) IRR     872
 MAX G-VECTOR INDEX FOR 1- AND 2-ELECTRON INTEGRALS 321

 TTTTTTTTTTTTTTTTTTTTTTTTTTTTTT INPUT       TELAPSE        0.06 TCPU        0.06

 NEIGHBORS OF THE NON-EQUIVALENT ATOMS

 N = NUMBER OF NEIGHBORS AT DISTANCE R
    ATOM  N     R/ANG      R/AU   NEIGHBORS (ATOM LABELS AND CELL INDICES)
   1 C    4     1.5461     2.9217    2 C    0 0 0    2 C    1 0 0    2 C    0 1 0
                                     2 C    0 0 1
   1 C   12     2.5247     4.7711    1 C   -1 0 0    1 C    1 0 0    1 C   -1 0 1
                                     1 C    1 0-1    1 C   -1 1 0    1 C    1-1 0
                                     1 C    0-1 0    1 C    0 1 0    1 C    0-1 1
                                     1 C    0 1-1    1 C    0 0-1    1 C    0 0 1
   1 C   12     2.9605     5.5946    2 C    1 0-1    2 C   -1 0 1    2 C    1-1 0
                                     2 C   -1 1 0    2 C    0 1-1    2 C    0-1 1
                                     2 C    1 1-1    2 C    1-1 1    2 C   -1 1 1
                                     2 C    1 1 0    2 C    1 0 1    2 C    0 1 1
   1 C    6     3.5705     6.7473    1 C   -1-1 1    1 C    1 1-1    1 C   -1 1-1
                                     1 C    1-1 1    1 C   -1 1 1    1 C    1-1-1
   1 C   12     3.8909     7.3527    2 C   -1 0 0    2 C    0-1 0    2 C    0 0-1
                                     2 C    2 0-1    2 C    2-1 0    2 C   -1 0 2
                                     2 C   -1 2 0    2 C    0 2-1    2 C    0-1 2
                                     2 C    2 0 0    2 C    0 2 0    2 C    0 0 2
   1 C   24     4.3730     8.2637    1 C   -2 0 1    1 C    2 0-1    1 C   -2 1 0
                                     1 C    2-1 0    1 C   -2 1 1    1 C    2-1-1
                                     1 C   -1-1 0    1 C    1 1 0    1 C   -1-1 2
                                     1 C    1 1-2    1 C   -1 0-1    1 C    1 0 1
                                     1 C   -1 0 2    1 C    1 0-2    1 C   -1 2-1
                                     1 C    1-2 1    1 C   -1 2 0    1 C    1-2 0
                                     1 C    0-2 1    1 C    0 2-1    1 C    0-1-1
                                     1 C    0 1 1    1 C    0-1 2    1 C    0 1-2


 THERE ARE NO SYMMETRY ALLOWED DIRECTIONS
 TTTTTTTTTTTTTTTTTTTTTTTTTTTTTT SYMM        TELAPSE        0.07 TCPU        0.06
 TTTTTTTTTTTTTTTTTTTTTTTTTTTTTT INT_SCREEN  TELAPSE        0.07 TCPU        0.06

 *******************************************************************************
 *                                                                             *
 *                                                                             *
 *         FFFFF  RRRR   EEEE   QQQ   U   U  EEEE  N   N   CCC  Y   Y          *
 *         F      R   R  E     Q   Q  U   U  E     NN  N  C      Y Y           *
 *         FFF    RRRR   EEEE  Q   Q  U   U  EEEE  N N N  C       Y            *
 *         F      R   R  E     Q  QQ  U   U  E     N  NN  C       Y            *
 *         F      R   R  EEEE   QQ Q   UUU   EEEE  N   N   CCC    Y            *
 *                                                                             *
 *                                                                             *
 * CALCULATION OF PHONON FREQUENCIES AT THE GAMMA POINT.                       *
 *                                                                             *
 * SYMMETRY IS EXPLOITED TO BUILD THE TOTAL HESSIAN MATRIX.                    *
 * (F. PASCALE PHD THESIS TURIN-PARIS 2002)                                    *
 *                                                                             *
 *******************************************************************************


 * INTENSITIES COMPUTED VIA THE BERRY PHASE APPROACH                           *
 *                                                                             *
 * REFERENCES TO BE QUOTED WHEN USING THIS MODULE:                             *
 *                                                                             *
 * F. Pascale, C.M. Zicovich-Wilson, F. Lopez, B. Civalleri                    *
 * R. Orlando, R. Dovesi                                                       *
 * The calculation of the vibration frequencies of crystalline                 *
 * compounds and its implementation in the CRYSTAL code                        *
 * J. Comput. Chem. 25 (2004) 888-897                                          *
 *                                                                             *
 * C.M. Zicovich-Wilson, F. Pascale, C. Roetti, V.R. Saunders,                 *
 * R. Orlando, R. Dovesi                                                       *
 * The calculation of the vibration frequencies of alpha-quartz:               *
 * the effect of hamiltonian and basis set                                     *
 * J. Comput. Chem. 25 (2004) 1873-1881                                        *
 *******************************************************************************



 ATOMS ISOTOPIC MASS (AMU) FOR FREQUENCY CALCULATION 

    1 C      12.0000    2 C      12.0000

 INFORMATION CONCERNING THE SCF+GRADIENT CALCULATIONS REQUIRED FOR
 GENERATING FREQUENCIES. IN PRINCIPLE 3N+1 SCF + GRADIENT
 CALCULATIONS  ARE REQUIRED;
 FOR EACH OF THEM THE REMAINING POINT SYMMETRY IS INDICATED.
 POINT SYMMETRY PERMITS TO GENERATE GRADIENTS FOR DISPLACEMENT B 
 STARTING FROM THE GRADIENT GENERATED BY DISPLACEMENT A.

   N   LABEL SYMBOL DISPLACEMENT     SYM. 

   1     EQUILIBRIUM GEOMETRY           48

   2      1   C            DX           4
   3      1   C            DY        GENERATED FROM LINE X WITH OP   6
   4      1   C            DZ        GENERATED FROM LINE X WITH OP   5
 USE OF RESIDUAL SYMMETRY AFTER DISPLACEMENT

 NUMERICAL GRADIENT COMPUTED WITH A SINGLE DISPLACEMENT (+DX) FOR EACH
 CARTESIAN COORDINATE WITH RESPECT TO THE EQUILIBRIUM CONFIGURATION
 DX=  0.003 ANGSTROM
 NUMBER OF IRREDUCIBLE ATOMS                     1
 NUMBER OF SCF+GRADIENT CALCULATIONS             2

  ATOM  SYMOP  ORDER
    1     24      4

 ATOM  : IRREDUCIBLE ATOM
 SYMOP : NUMBER OF SYMMETRY OPERATORS THAT DOESN'T MOVE THE IRREDUCIBLE ATOM
 ORDER : MAXIMUM ORDER AMONG THE OPERATORS OF THE IRREDUCIBLE ATOM

 *******************************************************************************


 GCALCO - MAX INDICES DIRECT LATTICE VECTOR    14    14    14
 NO.OF VECTORS CREATED 6999 STARS  105 RMAX    50.49223 BOHR

 CAPPA:IS1  8;IS2  8;IS3  8; K PTS MONK NET  29; SYMMOPS:K SPACE  48;G SPACE  48

 TTTTTTTTTTTTTTTTTTTTTTTTTTTTTT gordsh1     TELAPSE        0.07 TCPU        0.06

 MATRIX SIZE: P(G)   63628, F(G)   12062, P(G) IRR    1846, F(G) IRR     872
 MAX G-VECTOR INDEX FOR 1- AND 2-ELECTRON INTEGRALS 321

 TTTTTTTTTTTTTTTTTTTTTTTTTTTTTT INPUT       TELAPSE        0.07 TCPU        0.06

 THERE ARE NO SYMMETRY ALLOWED DIRECTIONS
 TTTTTTTTTTTTTTTTTTTTTTTTTTTTTT SYMM        TELAPSE        0.07 TCPU        0.06
 TTTTTTTTTTTTTTTTTTTTTTTTTTTTTT INT_SCREEN  TELAPSE        0.07 TCPU        0.06
 TTTTTTTTTTTTTTTTTTTTTTTTTTTTTT INT_CALC    TELAPSE        0.08 TCPU        0.08

 *******************************************************************************
 DIAMOND - BASIS SET 6-21 MODIFIED + POLARIZATION                                
 CRYSTAL - SCF - TYPE OF CALCULATION :  RESTRICTED CLOSED SHELL
 *******************************************************************************

 CAPPA:IS1  8;IS2  8;IS3  8; K PTS MONK NET  29; SYMMOPS:K SPACE  48;G SPACE  48

 TTTTTTTTTTTTTTTTTTTTTTTTTTTTTT SDIK        TELAPSE        0.09 TCPU        0.08

 AAAAAAAAAAAAAAAAAAAAAAAAAAAAAAAAAAAAAAAAAAAAAAAAAAAAAAAAAAAAAAAAAAAAAAAAAAAAAAA
         ATOMIC WAVEFUNCTION(S)


 NUCLEAR CHARGE  6.0  SYMMETRY SPECIES            S    P
 N. ELECTRONS    6.0  NUMBER OF PRIMITIVE GTOS    9    3
                      NUMBER OF CONTRACTED GTOS   3    2
                      NUMBER OF CLOSED SHELLS     2    0
                      OPEN SHELL OCCUPATION       0    2

  ZNUC  SCFIT    TOTAL HF ENERGY   KINETIC ENERGY   VIRIAL THEOREM             ACCURACY
   6.0     8    -3.765382151E+01  3.777290741E+01 -1.996847320E+00  4.0E-06

 AAAAAAAAAAAAAAAAAAAAAAAAAAAAAAAAAAAAAAAAAAAAAAAAAAAAAAAAAAAAAAAAAAAAAAAAAAAAAAA

 TTTTTTTTTTTTTTTTTTTTTTTTTTTTTT MOQGAD      TELAPSE        0.09 TCPU        0.09
 TTTTTTTTTTTTTTTTTTTTTTTTTTTTTT SHELLXN     TELAPSE        1.84 TCPU        1.84
 TTTTTTTTTTTTTTTTTTTTTTTTTTTTTT MONMO3      TELAPSE        1.85 TCPU        1.84
 CYC   0 ETOT(AU) -7.691354769498E+01 DETOT -7.69E+01 tst  0.00E+00 PX  1.00E+00
 TTTTTTTTTTTTTTTTTTTTTTTTTTTTTT DIIS        TELAPSE        1.85 TCPU        1.84
 TTTTTTTTTTTTTTTTTTTTTTTTTTTTTT FDIK        TELAPSE        1.86 TCPU        1.85
 INSULATING STATE
 TOP OF VALENCE BANDS -    BAND      6; K    1; EIG -5.6631474E-02 AU
 BOTTOM OF VIRTUAL BANDS - BAND      7; K   18; EIG  1.0269174E-01 AU
 INDIRECT ENERGY BAND GAP:   4.3354 eV
 BOTTOM OF VIRTUAL BANDS - BAND      7; K    1; EIG  2.0258330E-01 AU
 TTTTTTTTTTTTTTTTTTTTTTTTTTTTTT PDIG        TELAPSE        1.88 TCPU        1.87
 TTTTTTTTTTTTTTTTTTTTTTTTTTTTTT MOQGAD      TELAPSE        1.89 TCPU        1.88
 TTTTTTTTTTTTTTTTTTTTTTTTTTTTTT SHELLXN     TELAPSE        3.64 TCPU        3.64
 TTTTTTTTTTTTTTTTTTTTTTTTTTTTTT MONMO3      TELAPSE        3.65 TCPU        3.64
 CYC   1 ETOT(AU) -7.569022901967E+01 DETOT  1.22E+00 tst  0.00E+00 PX  1.00E+00
 TTTTTTTTTTTTTTTTTTTTTTTTTTTTTT DIIS        TELAPSE        3.65 TCPU        3.64
 DIIS TEST: 0.26223E-01 AT SCF   CYCLE   1 - MIX   30 %
 TTTTTTTTTTTTTTTTTTTTTTTTTTTTTT FDIK        TELAPSE        3.65 TCPU        3.65
 INSULATING STATE
 TOP OF VALENCE BANDS -    BAND      6; K    1; EIG -8.1892289E-02 AU
 BOTTOM OF VIRTUAL BANDS - BAND      7; K   18; EIG  2.4504803E-01 AU
 INDIRECT ENERGY BAND GAP:   8.8965 eV
 BOTTOM OF VIRTUAL BANDS - BAND      7; K    1; EIG  3.2206171E-01 AU
 TTTTTTTTTTTTTTTTTTTTTTTTTTTTTT PDIG        TELAPSE        3.68 TCPU        3.67
 TTTTTTTTTTTTTTTTTTTTTTTTTTTTTT MOQGAD      TELAPSE        3.68 TCPU        3.68
 TTTTTTTTTTTTTTTTTTTTTTTTTTTTTT SHELLXN     TELAPSE        5.44 TCPU        5.43
 TTTTTTTTTTTTTTTTTTTTTTTTTTTTTT MONMO3      TELAPSE        5.44 TCPU        5.43
 CYC   2 ETOT(AU) -7.570980626394E+01 DETOT -1.96E-02 tst  2.55E-03 PX  6.10E-02
 TTTTTTTTTTTTTTTTTTTTTTTTTTTTTT DIIS        TELAPSE        5.45 TCPU        5.44
 DIIS TEST: 0.35704E-02 AT SCF   CYCLE   2 - DIIS ACTIVE - HISTORY:     2 CYCLES
 TTTTTTTTTTTTTTTTTTTTTTTTTTTTTT FDIK        TELAPSE        5.45 TCPU        5.44
 INSULATING STATE
 TOP OF VALENCE BANDS -    BAND      6; K    1; EIG -1.0416077E-01 AU
 BOTTOM OF VIRTUAL BANDS - BAND      7; K   18; EIG  3.3499112E-01 AU
 INDIRECT ENERGY BAND GAP:  11.9499 eV
 BOTTOM OF VIRTUAL BANDS - BAND      7; K    1; EIG  4.0511177E-01 AU
 TTTTTTTTTTTTTTTTTTTTTTTTTTTTTT PDIG        TELAPSE        5.47 TCPU        5.46
 TTTTTTTTTTTTTTTTTTTTTTTTTTTTTT MOQGAD      TELAPSE        5.48 TCPU        5.47
 TTTTTTTTTTTTTTTTTTTTTTTTTTTTTT SHELLXN     TELAPSE        7.21 TCPU        7.20
 TTTTTTTTTTTTTTTTTTTTTTTTTTTTTT MONMO3      TELAPSE        7.22 TCPU        7.21
 CYC   3 ETOT(AU) -7.571480873854E+01 DETOT -5.00E-03 tst  1.56E-03 PX  6.98E-02
 TTTTTTTTTTTTTTTTTTTTTTTTTTTTTT DIIS        TELAPSE        7.22 TCPU        7.21
 DIIS TEST: 0.13596E-04 AT SCF   CYCLE   3 - DIIS ACTIVE - HISTORY:     3 CYCLES
 TTTTTTTTTTTTTTTTTTTTTTTTTTTTTT FDIK        TELAPSE        7.22 TCPU        7.21
 INSULATING STATE
 TOP OF VALENCE BANDS -    BAND      6; K    1; EIG -1.1104455E-01 AU
 BOTTOM OF VIRTUAL BANDS - BAND      7; K   18; EIG  3.3394572E-01 AU
 INDIRECT ENERGY BAND GAP:  12.1088 eV
 BOTTOM OF VIRTUAL BANDS - BAND      7; K    1; EIG  4.0594730E-01 AU
 TTTTTTTTTTTTTTTTTTTTTTTTTTTTTT PDIG        TELAPSE        7.25 TCPU        7.24
 TTTTTTTTTTTTTTTTTTTTTTTTTTTTTT MOQGAD      TELAPSE        7.25 TCPU        7.24
 TTTTTTTTTTTTTTTTTTTTTTTTTTTTTT SHELLXN     TELAPSE        8.98 TCPU        8.97
 TTTTTTTTTTTTTTTTTTTTTTTTTTTTTT MONMO3      TELAPSE        8.98 TCPU        8.97
 CYC   4 ETOT(AU) -7.571486742444E+01 DETOT -5.87E-05 tst  1.79E-05 PX  1.49E-02
 TTTTTTTTTTTTTTTTTTTTTTTTTTTTTT DIIS        TELAPSE        8.99 TCPU        8.98
 DIIS TEST: 0.17267E-05 AT SCF   CYCLE   4 - DIIS ACTIVE - HISTORY:     4 CYCLES
 TTTTTTTTTTTTTTTTTTTTTTTTTTTTTT FDIK        TELAPSE        8.99 TCPU        8.98
 INSULATING STATE
 TOP OF VALENCE BANDS -    BAND      6; K    1; EIG -1.1007494E-01 AU
 BOTTOM OF VIRTUAL BANDS - BAND      7; K   18; EIG  3.3366982E-01 AU
 INDIRECT ENERGY BAND GAP:  12.0749 eV
 BOTTOM OF VIRTUAL BANDS - BAND      7; K    1; EIG  4.0509496E-01 AU
 TTTTTTTTTTTTTTTTTTTTTTTTTTTTTT PDIG        TELAPSE        9.01 TCPU        9.00
 TTTTTTTTTTTTTTTTTTTTTTTTTTTTTT MOQGAD      TELAPSE        9.02 TCPU        9.01
 TTTTTTTTTTTTTTTTTTTTTTTTTTTTTT SHELLXN     TELAPSE       10.75 TCPU       10.74
 TTTTTTTTTTTTTTTTTTTTTTTTTTTTTT MONMO3      TELAPSE       10.75 TCPU       10.74
 CYC   5 ETOT(AU) -7.571486615656E+01 DETOT  1.27E-06 tst  1.08E-06 PX  3.60E-03
 TTTTTTTTTTTTTTTTTTTTTTTTTTTTTT DIIS        TELAPSE       10.76 TCPU       10.75
 DIIS TEST: 0.28039E-07 AT SCF   CYCLE   5 - DIIS ACTIVE - HISTORY:     5 CYCLES
 TTTTTTTTTTTTTTTTTTTTTTTTTTTTTT FDIK        TELAPSE       10.76 TCPU       10.75
 INSULATING STATE
 TOP OF VALENCE BANDS -    BAND      6; K    1; EIG -1.1031192E-01 AU
 BOTTOM OF VIRTUAL BANDS - BAND      7; K   18; EIG  3.3365195E-01 AU
 INDIRECT ENERGY BAND GAP:  12.0809 eV
 BOTTOM OF VIRTUAL BANDS - BAND      7; K    1; EIG  4.0516808E-01 AU
 TTTTTTTTTTTTTTTTTTTTTTTTTTTTTT PDIG        TELAPSE       10.78 TCPU       10.77
 TTTTTTTTTTTTTTTTTTTTTTTTTTTTTT MOQGAD      TELAPSE       10.79 TCPU       10.78
 TTTTTTTTTTTTTTTTTTTTTTTTTTTTTT SHELLXN     TELAPSE       12.52 TCPU       12.51
 TTTTTTTTTTTTTTTTTTTTTTTTTTTTTT MONMO3      TELAPSE       12.52 TCPU       12.51
 CYC   6 ETOT(AU) -7.571486660284E+01 DETOT -4.46E-07 tst  2.33E-08 PX  4.09E-04
 TTTTTTTTTTTTTTTTTTTTTTTTTTTTTT DIIS        TELAPSE       12.52 TCPU       12.51
 DIIS TEST: 0.22134E-08 AT SCF   CYCLE   6 - DIIS ACTIVE - HISTORY:     6 CYCLES
 TTTTTTTTTTTTTTTTTTTTTTTTTTTTTT FDIK        TELAPSE       12.53 TCPU       12.52
 INSULATING STATE
 TOP OF VALENCE BANDS -    BAND      6; K    1; EIG -1.1024349E-01 AU
 BOTTOM OF VIRTUAL BANDS - BAND      7; K   18; EIG  3.3367069E-01 AU
 INDIRECT ENERGY BAND GAP:  12.0795 eV
 BOTTOM OF VIRTUAL BANDS - BAND      7; K    1; EIG  4.0515880E-01 AU
 TTTTTTTTTTTTTTTTTTTTTTTTTTTTTT PDIG        TELAPSE       12.55 TCPU       12.54
 TTTTTTTTTTTTTTTTTTTTTTTTTTTTTT MOQGAD      TELAPSE       12.56 TCPU       12.55
 TTTTTTTTTTTTTTTTTTTTTTTTTTTTTT SHELLXN     TELAPSE       14.28 TCPU       14.27
 TTTTTTTTTTTTTTTTTTTTTTTTTTTTTT MONMO3      TELAPSE       14.28 TCPU       14.27
 CYC   7 ETOT(AU) -7.571486653977E+01 DETOT  6.31E-08 tst  1.31E-09 PX  8.86E-05
 TTTTTTTTTTTTTTTTTTTTTTTTTTTTTT DIIS        TELAPSE       14.29 TCPU       14.28
 DIIS TEST: 0.14126E-09 AT SCF   CYCLE   7 - DIIS ACTIVE - HISTORY:     7 CYCLES
 TTTTTTTTTTTTTTTTTTTTTTTTTTTTTT FDIK        TELAPSE       14.29 TCPU       14.28
 INSULATING STATE
 TOP OF VALENCE BANDS -    BAND      6; K    1; EIG -1.1025152E-01 AU
 BOTTOM OF VIRTUAL BANDS - BAND      7; K   18; EIG  3.3367383E-01 AU
 INDIRECT ENERGY BAND GAP:  12.0798 eV
 BOTTOM OF VIRTUAL BANDS - BAND      7; K    1; EIG  4.0516211E-01 AU
 TTTTTTTTTTTTTTTTTTTTTTTTTTTTTT PDIG        TELAPSE       14.31 TCPU       14.30
 TTTTTTTTTTTTTTTTTTTTTTTTTTTTTT MOQGAD      TELAPSE       14.32 TCPU       14.31
 TTTTTTTTTTTTTTTTTTTTTTTTTTTTTT SHELLXN     TELAPSE       16.04 TCPU       16.04
 TTTTTTTTTTTTTTTTTTTTTTTTTTTTTT MONMO3      TELAPSE       16.05 TCPU       16.04
 CYC   8 ETOT(AU) -7.571486656232E+01 DETOT -2.26E-08 tst  1.18E-10 PX  1.99E-05
 TTTTTTTTTTTTTTTTTTTTTTTTTTTTTT DIIS        TELAPSE       16.05 TCPU       16.04
 DIIS TEST: 0.26295E-10 AT SCF   CYCLE   8 - DIIS ACTIVE - HISTORY:     8 CYCLES
 TTTTTTTTTTTTTTTTTTTTTTTTTTTTTT FDIK        TELAPSE       16.06 TCPU       16.05
 INSULATING STATE
 TOP OF VALENCE BANDS -    BAND      6; K    1; EIG -1.1027340E-01 AU
 BOTTOM OF VIRTUAL BANDS - BAND      7; K   18; EIG  3.3365962E-01 AU
 INDIRECT ENERGY BAND GAP:  12.0800 eV
 BOTTOM OF VIRTUAL BANDS - BAND      7; K    1; EIG  4.0515998E-01 AU
 TTTTTTTTTTTTTTTTTTTTTTTTTTTTTT PDIG        TELAPSE       16.08 TCPU       16.07
 TTTTTTTTTTTTTTTTTTTTTTTTTTTTTT MOQGAD      TELAPSE       16.09 TCPU       16.08
 TTTTTTTTTTTTTTTTTTTTTTTTTTTTTT SHELLXN     TELAPSE       17.81 TCPU       17.80
 TTTTTTTTTTTTTTTTTTTTTTTTTTTTTT MONMO3      TELAPSE       17.81 TCPU       17.80
 CYC   9 ETOT(AU) -7.571486657693E+01 DETOT -1.46E-08 tst  1.17E-10 PX  1.88E-05
 TTTTTTTTTTTTTTTTTTTTTTTTTTTTTT DIIS        TELAPSE       17.82 TCPU       17.80
 DIIS TEST: 0.22681E-09 AT SCF   CYCLE   9 - DIIS ACTIVE - HISTORY:     9 CYCLES
 TTTTTTTTTTTTTTTTTTTTTTTTTTTTTT FDIK        TELAPSE       17.82 TCPU       17.81
 INSULATING STATE
 TOP OF VALENCE BANDS -    BAND      6; K    1; EIG -1.1025645E-01 AU
 BOTTOM OF VIRTUAL BANDS - BAND      7; K   18; EIG  3.3366995E-01 AU
 INDIRECT ENERGY BAND GAP:  12.0799 eV
 BOTTOM OF VIRTUAL BANDS - BAND      7; K    1; EIG  4.0516107E-01 AU
 TTTTTTTTTTTTTTTTTTTTTTTTTTTTTT PDIG        TELAPSE       17.84 TCPU       17.83
 TTTTTTTTTTTTTTTTTTTTTTTTTTTTTT MOQGAD      TELAPSE       17.85 TCPU       17.84
 TTTTTTTTTTTTTTTTTTTTTTTTTTTTTT SHELLXN     TELAPSE       19.57 TCPU       19.56
 TTTTTTTTTTTTTTTTTTTTTTTTTTTTTT MONMO3      TELAPSE       19.58 TCPU       19.57
 CYC  10 ETOT(AU) -7.571486656269E+01 DETOT  1.42E-08 tst  7.02E-11 PX  1.60E-05
 TTTTTTTTTTTTTTTTTTTTTTTTTTTTTT DIIS        TELAPSE       19.58 TCPU       19.57
 DIIS TEST: 0.29744E-12 AT SCF   CYCLE  10 - DIIS ACTIVE - HISTORY:    10 CYCLES
 TTTTTTTTTTTTTTTTTTTTTTTTTTTTTT FDIK        TELAPSE       19.58 TCPU       19.57
 INSULATING STATE
 TOP OF VALENCE BANDS -    BAND      6; K    1; EIG -1.1025748E-01 AU
 BOTTOM OF VIRTUAL BANDS - BAND      7; K   18; EIG  3.3366881E-01 AU
 INDIRECT ENERGY BAND GAP:  12.0799 eV
 BOTTOM OF VIRTUAL BANDS - BAND      7; K    1; EIG  4.0516101E-01 AU
 TTTTTTTTTTTTTTTTTTTTTTTTTTTTTT PDIG        TELAPSE       19.61 TCPU       19.60
 TTTTTTTTTTTTTTTTTTTTTTTTTTTTTT MOQGAD      TELAPSE       19.61 TCPU       19.60
 TTTTTTTTTTTTTTTTTTTTTTTTTTTTTT SHELLXN     TELAPSE       21.34 TCPU       21.33
 TTTTTTTTTTTTTTTTTTTTTTTTTTTTTT MONMO3      TELAPSE       21.34 TCPU       21.33
 CYC  11 ETOT(AU) -7.571486656322E+01 DETOT -5.26E-10 tst  3.11E-12 PX  1.34E-06
 TTTTTTTTTTTTTTTTTTTTTTTTTTTTTT DIIS        TELAPSE       21.35 TCPU       21.34
 DIIS TEST: 0.39379E-12 AT SCF   CYCLE  11 - DIIS ACTIVE - HISTORY:    11 CYCLES
 TTTTTTTTTTTTTTTTTTTTTTTTTTTTTT FDIK        TELAPSE       21.35 TCPU       21.34
 INSULATING STATE
 TOP OF VALENCE BANDS -    BAND      6; K    1; EIG -1.1025661E-01 AU
 BOTTOM OF VIRTUAL BANDS - BAND      7; K   18; EIG  3.3366993E-01 AU
 INDIRECT ENERGY BAND GAP:  12.0799 eV
 BOTTOM OF VIRTUAL BANDS - BAND      7; K    1; EIG  4.0516117E-01 AU
 TTTTTTTTTTTTTTTTTTTTTTTTTTTTTT PDIG        TELAPSE       21.37 TCPU       21.36
 TTTTTTTTTTTTTTTTTTTTTTTTTTTTTT MOQGAD      TELAPSE       21.38 TCPU       21.37
 TTTTTTTTTTTTTTTTTTTTTTTTTTTTTT SHELLXN     TELAPSE       23.10 TCPU       23.09
 TTTTTTTTTTTTTTTTTTTTTTTTTTTTTT MONMO3      TELAPSE       23.10 TCPU       23.09
 CYC  12 ETOT(AU) -7.571486656256E+01 DETOT  6.61E-10 tst  8.05E-13 PX  8.83E-07
 TTTTTTTTTTTTTTTTTTTTTTTTTTTTTT DIIS        TELAPSE       23.11 TCPU       23.10
 DIIS TEST: 0.19395E-12 AT SCF   CYCLE  12 - DIIS ACTIVE - HISTORY:    12 CYCLES
 TTTTTTTTTTTTTTTTTTTTTTTTTTTTTT FDIK        TELAPSE       23.11 TCPU       23.10
 INSULATING STATE
 TOP OF VALENCE BANDS -    BAND      6; K    1; EIG -1.1025661E-01 AU
 BOTTOM OF VIRTUAL BANDS - BAND      7; K   18; EIG  3.3367000E-01 AU
 INDIRECT ENERGY BAND GAP:  12.0799 eV
 BOTTOM OF VIRTUAL BANDS - BAND      7; K    1; EIG  4.0516124E-01 AU
 TTTTTTTTTTTTTTTTTTTTTTTTTTTTTT PDIG        TELAPSE       23.13 TCPU       23.12
 TTTTTTTTTTTTTTTTTTTTTTTTTTTTTT MOQGAD      TELAPSE       23.14 TCPU       23.13
 TTTTTTTTTTTTTTTTTTTTTTTTTTTTTT SHELLXN     TELAPSE       24.86 TCPU       24.85
 TTTTTTTTTTTTTTTTTTTTTTTTTTTTTT MONMO3      TELAPSE       24.86 TCPU       24.85
 CYC  13 ETOT(AU) -7.571486656290E+01 DETOT -3.41E-10 tst  7.26E-14 PX  1.37E-07
 TTTTTTTTTTTTTTTTTTTTTTTTTTTTTT DIIS        TELAPSE       24.87 TCPU       24.86
 DIIS TEST: 0.11834E-12 AT SCF   CYCLE  13 - DIIS ACTIVE - HISTORY:    13 CYCLES
 TTTTTTTTTTTTTTTTTTTTTTTTTTTTTT FDIK        TELAPSE       24.87 TCPU       24.86
 INSULATING STATE
 TOP OF VALENCE BANDS -    BAND      6; K    1; EIG -1.1025603E-01 AU
 BOTTOM OF VIRTUAL BANDS - BAND      7; K   18; EIG  3.3367093E-01 AU
 INDIRECT ENERGY BAND GAP:  12.0799 eV
 BOTTOM OF VIRTUAL BANDS - BAND      7; K    1; EIG  4.0516150E-01 AU
 TTTTTTTTTTTTTTTTTTTTTTTTTTTTTT PDIG        TELAPSE       24.89 TCPU       24.88
 TTTTTTTTTTTTTTTTTTTTTTTTTTTTTT MOQGAD      TELAPSE       24.90 TCPU       24.89
 TTTTTTTTTTTTTTTTTTTTTTTTTTTTTT SHELLXN     TELAPSE       26.66 TCPU       26.65
 TTTTTTTTTTTTTTTTTTTTTTTTTTTTTT MONMO3      TELAPSE       26.66 TCPU       26.65
 CYC  14 ETOT(AU) -7.571486656240E+01 DETOT  4.96E-10 tst  6.01E-13 PX  7.21E-07
 TTTTTTTTTTTTTTTTTTTTTTTTTTTTTT DIIS        TELAPSE       26.67 TCPU       26.66
 DIIS TEST: 0.14582E-11 AT SCF   CYCLE  14 - DIIS ACTIVE - HISTORY:    14 CYCLES
 TTTTTTTTTTTTTTTTTTTTTTTTTTTTTT FDIK        TELAPSE       26.67 TCPU       26.66
 INSULATING STATE
 TOP OF VALENCE BANDS -    BAND      6; K    1; EIG -1.1025682E-01 AU
 BOTTOM OF VIRTUAL BANDS - BAND      7; K   18; EIG  3.3366979E-01 AU
 INDIRECT ENERGY BAND GAP:  12.0799 eV
 BOTTOM OF VIRTUAL BANDS - BAND      7; K    1; EIG  4.0516123E-01 AU
 TTTTTTTTTTTTTTTTTTTTTTTTTTTTTT PDIG        TELAPSE       26.69 TCPU       26.68
 TTTTTTTTTTTTTTTTTTTTTTTTTTTTTT MOQGAD      TELAPSE       26.70 TCPU       26.69
 TTTTTTTTTTTTTTTTTTTTTTTTTTTTTT SHELLXN     TELAPSE       28.43 TCPU       28.42
 TTTTTTTTTTTTTTTTTTTTTTTTTTTTTT MONMO3      TELAPSE       28.43 TCPU       28.42
 CYC  15 ETOT(AU) -7.571486656329E+01 DETOT -8.91E-10 tst  1.00E-12 PX  8.36E-07
 TTTTTTTTTTTTTTTTTTTTTTTTTTTTTT DIIS        TELAPSE       28.44 TCPU       28.43
 DIIS TEST: 0.48540E-14 AT SCF   CYCLE  15 - DIIS ACTIVE - HISTORY:    15 CYCLES
 TTTTTTTTTTTTTTTTTTTTTTTTTTTTTT FDIK        TELAPSE       28.44 TCPU       28.43
 INSULATING STATE
 TOP OF VALENCE BANDS -    BAND      6; K    1; EIG -1.1025679E-01 AU
 BOTTOM OF VIRTUAL BANDS - BAND      7; K   18; EIG  3.3366985E-01 AU
 INDIRECT ENERGY BAND GAP:  12.0799 eV
 BOTTOM OF VIRTUAL BANDS - BAND      7; K    1; EIG  4.0516122E-01 AU
 TTTTTTTTTTTTTTTTTTTTTTTTTTTTTT PDIG        TELAPSE       28.46 TCPU       28.45
 TTTTTTTTTTTTTTTTTTTTTTTTTTTTTT MOQGAD      TELAPSE       28.47 TCPU       28.46
 TTTTTTTTTTTTTTTTTTTTTTTTTTTTTT SHELLXN     TELAPSE       30.20 TCPU       30.19
 TTTTTTTTTTTTTTTTTTTTTTTTTTTTTT MONMO3      TELAPSE       30.21 TCPU       30.20
 CYC  16 ETOT(AU) -7.571486656330E+01 DETOT -6.76E-12 tst  7.40E-14 PX  3.91E-07
 TTTTTTTTTTTTTTTTTTTTTTTTTTTTTT DIIS        TELAPSE       30.21 TCPU       30.20
 DIIS TEST: 0.32821E-13 AT SCF   CYCLE  16 - DIIS ACTIVE - HISTORY:    16 CYCLES
 TTTTTTTTTTTTTTTTTTTTTTTTTTTTTT FDIK        TELAPSE       30.22 TCPU       30.21
 INSULATING STATE
 TOP OF VALENCE BANDS -    BAND      6; K    1; EIG -1.1025740E-01 AU
 BOTTOM OF VIRTUAL BANDS - BAND      7; K   18; EIG  3.3366956E-01 AU
 INDIRECT ENERGY BAND GAP:  12.0799 eV
 BOTTOM OF VIRTUAL BANDS - BAND      7; K    1; EIG  4.0516120E-01 AU
 TTTTTTTTTTTTTTTTTTTTTTTTTTTTTT PDIG        TELAPSE       30.24 TCPU       30.23
 TTTTTTTTTTTTTTTTTTTTTTTTTTTTTT MOQGAD      TELAPSE       30.24 TCPU       30.23
 TTTTTTTTTTTTTTTTTTTTTTTTTTTTTT SHELLXN     TELAPSE       31.96 TCPU       31.95
 ::: TOTAL   ENERGY                               -7.5714866565481E+01
 ::: VIRIAL COEFFICIENT                            1.0001656295872E+00
 TTTTTTTTTTTTTTTTTTTTTTTTTTTTTT MONMO3      TELAPSE       31.96 TCPU       31.95
 CYC  17 ETOT(AU) -7.571486656548E+01 DETOT -2.18E-09 tst  3.66E-13 PX  3.91E-07

 == SCF ENDED - CONVERGENCE ON ENERGY      E(AU) -7.5714866565481E+01 CYCLES  17

 TOTAL ENERGY(HF)(AU)(  17) -7.5714866565481E+01 DE-2.2E-09 tst 3.7E-13 PX 3.9E-07

 *******************************************************************************
 *                             FORCE CALCULATION                               *
 *******************************************************************************

 INFORMATION **** EXCPOG **** EXCH. BIPO BUFFER LENGTH (WORDS) =     1259424
 INFORMATION **** GENPOG **** BIPO BUFFER LENGTH (WORDS) =       74600
 TTTTTTTTTTTTTTTTTTTTTTTTTTTTTT SHELXG      TELAPSE       47.20 TCPU       47.19

 CARTESIAN FORCES IN HARTREE/BOHR (ANALYTICAL)
   ATOM                     X                   Y                   Z
   1   6             4.962797589084E-17 -1.564529762270E-16 -6.156004362720E-16
   2   6            -6.119279906401E-17  1.495140823231E-16  6.063485777334E-16

 RESULTANT FORCE    -1.156482317318E-17 -6.938893903907E-18 -9.251858538543E-18

 THERE ARE NO SYMMETRY ALLOWED DIRECTIONS
 TTTTTTTTTTTTTTTTTTTTTTTTTTTTTT TOTGRA      TELAPSE       47.23 TCPU       47.22

 HHHHHHHHHHHHHHHHHHHHHHHHHHHHHHHHHHHHHHHHHHHHHHHHHHHHHHHHHHHHHHHHHHHHHHHHHHHHHHH
                   FORCE CONSTANT MATRIX - NUMERICAL ESTIMATE
 HHHHHHHHHHHHHHHHHHHHHHHHHHHHHHHHHHHHHHHHHHHHHHHHHHHHHHHHHHHHHHHHHHHHHHHHHHHHHHH
 MAX ABS(DGRAD): MAXIMUM ABSOLUTE GRADIENT DIFFERENCE WITH RESPECT TO
                 THE CENTRAL POINT
 DE:             ENERGY DIFFERENCE WITH RESPECT TO THE CENTRAL POINT
                 (DE IS EXPECTED TO BE POSITIVE FOR ALL DISPLACEMENTS)

   ATOM      MAX ABS(DGRAD)       TOTAL ENERGY (AU)  N.CYC      DE       SYM
    CENTRAL POINT             -7.571486656548E+01    17     0.0000E+00    48
    1 C  DX   2.9294E-03      -7.571485824341E+01     8     8.3221E-06     4
    1 C  DY                   GENERATED FROM A PREVIOUS LINE
    1 C  DZ                   GENERATED FROM A PREVIOUS LINE

 GCALCO - MAX INDICES DIRECT LATTICE VECTOR    14    14    14
 NO.OF VECTORS CREATED 6999 STARS  105 RMAX    50.49223 BOHR

 CAPPA:IS1  8;IS2  8;IS3  8; K PTS MONK NET  29; SYMMOPS:K SPACE  48;G SPACE  48

 TTTTTTTTTTTTTTTTTTTTTTTTTTTTTT gordsh1     TELAPSE      203.33 TCPU      203.32

 MATRIX SIZE: P(G)   63628, F(G)   12062, P(G) IRR    1846, F(G) IRR     872
 MAX G-VECTOR INDEX FOR 1- AND 2-ELECTRON INTEGRALS 321

 TTTTTTTTTTTTTTTTTTTTTTTTTTTTTT INPUT       TELAPSE      203.33 TCPU      203.32

 THERE ARE NO SYMMETRY ALLOWED DIRECTIONS
 TTTTTTTTTTTTTTTTTTTTTTTTTTTTTT SYMM        TELAPSE      203.33 TCPU      203.32
 TTTTTTTTTTTTTTTTTTTTTTTTTTTTTT INT_SCREEN  TELAPSE      203.33 TCPU      203.32

 +++ SYMMETRY ADAPTION OF VIBRATIONAL MODES +++

 SYMMETRY INFORMATION:
 K-LITTLE GROUP: CLASS TABLE, CHARACTER TABLE.
 IRREP-(DIMENSION, NO. IRREDUCIBLE SETS)
 [WARNINGS: (1) ONLY ACTIVE IRREPS ARE GENERATED AND LISTED.
            (2) ONLY RELEVANT CLASSES ARE CONSIDERED IN THE CHARACTER TABLE
            (3) SYMBOLS MAY NOT FULLY COINCIDE WITH THOSE FROM TEXT BOOKS.]

 (P, D, RP, RD, STAND FOR PAIRING, DOUBLING, REAL PAIRING AND REAL DOUBLING 
 OF THE IRREPS (SEE MANUAL))

 CLASS  | GROUP OPERATORS (SEE SYMMOPS KEYWORD)
 --------------------------------------------------------------------
 C2     |   2;   3;   4;
 C3     |   5;  11;   7;   9;   6;  12;  10;   8;
 C2'    |  13;  14;  17;  18;  23;  24;
 C4     |  15;  16;  19;  20;  21;  22;
 I      |  25;
 SGH    |  26;  27;  28;
 S6     |  29;  35;  31;  33;  30;  36;  34;  32;
 SGD    |  37;  38;  41;  42;  47;  48;
 S4     |  39;  40;  43;  44;  45;  46;

 IRREP/CLA      E     C2     C3    C2'     C4      I    SGH     S6    SGD     S4
 -------------------------------------------------------------------------------
  MULTIP |      1      3      8      6      6      1      3      8      6      6
 -------------------------------------------------------------------------------
    F2g  |   3.00  -1.00   0.00   1.00  -1.00   3.00  -1.00   0.00   1.00  -1.00
    F1u  |   3.00  -1.00   0.00  -1.00   1.00  -3.00   1.00   0.00   1.00  -1.00

 F2g-(3,   1);
 F1u-(3,   1);

 HHHHHHHHHHHHHHHHHHHHHHHHHHHHHHHHHHHHHHHHHHHHHHHHHHHHHHHHHHHHHHHHHHHHHHHHHHHHHH
 EIGENVALUES (EIGV) OF THE MASS WEIGHTED HESSIAN MATRIX AND HARMONIC TRANSVERSE
 OPTICAL (TO) FREQUENCIES. IRREP LABELS REFER TO SYMMETRY REPRESENTATION
 ANALYSIS; A AND I INDICATE WHETHER THE MODE IS ACTIVE OR INACTIVE,
 RESPECTIVELY, FOR IR AND RAMAN; INTEGRATED IR INTENSITIES IN BRACKETS.

 CONVERSION FACTORS FOR FREQUENCIES:
      1 CM**(-1) =   0.4556335E-05 HARTREE
      1 THZ      =   0.3335641E+02 CM**(-1)

 HHHHHHHHHHHHHHHHHHHHHHHHHHHHHHHHHHHHHHHHHHHHHHHHHHHHHHHHHHHHHHHHHHHHHHHHHHHHHH

    MODES         EIGV          FREQUENCIES     IRREP  IR   INTENS    RAMAN
             (HARTREE**2)   (CM**-1)     (THZ)             (KM/MOL)
    1-   3   -0.5575E-21      0.0000    0.0000  (F1u)   A (     0.00)   I
    4-   6    0.4724E-04   1508.5348   45.2247  (F2g)   I (     0.00)   A

 NORMAL MODES NORMALIZED TO CLASSICAL AMPLITUDES (IN BOHR)

 FREQ(CM**-1)      0.00      0.00      0.00   1508.53   1508.53   1508.53

 AT.   1 C  X     0.2041    0.0000    0.0000    0.0577    0.0000    0.0000
            Y     0.0000    0.2041    0.0000    0.0000    0.0577    0.0000
            Z     0.0000    0.0000    0.2041    0.0000    0.0000    0.0577
 AT.   2 C  X     0.2041    0.0000    0.0000   -0.0577    0.0000    0.0000
            Y     0.0000    0.2041    0.0000    0.0000   -0.0577    0.0000
            Z     0.0000    0.0000    0.2041    0.0000    0.0000   -0.0577

 *******************************************************************************

 VIBRATIONAL TEMPERATURES (K) [MODE NUMBER;IRREP]

 TO MODES
  2170.4 [   4;F2g]  2170.4 [   5;F2g]  2170.4 [   6;F2g]

 *******************************************************************************

 HARMONIC VIBRATIONAL CONTRIBUTIONS TO THERMODYNAMIC FUNCTIONS AT GIVEN
 TEMPERATURE AND PRESSURE:

 (EL = ELECTRONIC ENERGY
  E0 = ZERO-POINT ENERGY
  ET = THERMAL CONTRIBUTION TO THE VIBRATIONAL ENERGY
  PV = PRESSURE * VOLUME
  TS = TEMPERATURE * ENTROPY)

                          AU/CELL             EV/CELL                 KJ/MOL
 EL            :     -75.714866565481   -2060.306263193138     -198789.35415317
 E0            :       0.010310085468       0.280551688558          27.06912558


 *******************************************************************************

 THERMODYNAMIC FUNCTIONS WITH VIBRATIONAL CONTRIBUTIONS

 AT (T =  298.15 K, P =   0.10132500E+00 MPA):

                          AU/CELL             EV/CELL                 KJ/MOL
 ET            :       0.000014225199       0.000387087353           0.03734826
 PV            :       0.000000264479       0.000007196832           0.00069439
 TS            :       0.000016178617       0.000440242554           0.04247695
 ET+PV-TS      :      -0.000001688939      -0.000045958368          -0.00443431
 EL+E0+ET+PV-TS:     -75.704558168952   -2060.025757462948     -198762.28946190

 OTHER THERMODYNAMIC FUNCTIONS:

                      mHARTREE/(CELL*K)     mEV/(CELL*K)              J/(MOL*K)
 ENTROPY       :       0.000054263348       0.001476580760           0.14246840
 HEAT CAPACITY :       0.000347565382       0.009457734864           0.91253278

 *******************************************************************************
 TTTTTTTTTTTTTTTTTTTTTTTTTTTTTT END         TELAPSE      203.33 TCPU      203.32
 EEEEEEEEEE TERMINATION  DATE 24 01 2026 TIME 22:49:30.4
Sat Jan 24 10:49:30 PM GMT 2026
Contents of temporary directory:
total 5680
-rw-r--r-- 1 crystal crystal    1350 Jan 24 22:25 BORN.DAT
-rw-r--r-- 1 crystal crystal  310464 Jan 24 22:48 diis_Fg
-rw-r--r-- 1 crystal crystal   13248 Jan 24 22:48 diis_Fia1
-rw-r--r-- 1 crystal crystal   15456 Jan 24 22:49 diis_Fia2
-rw-r--r-- 1 crystal crystal       0 Sep 11 10:13 diis_Sk
-rw-r--r-- 1 crystal crystal    1332 Jan 24 22:42 FORCES.DAT
-rw-r--r-- 1 crystal crystal  954312 Jan 24 22:48 fort.10
-rw-r--r-- 1 crystal crystal   38808 Jan 24 22:48 fort.11
-rw-r--r-- 1 crystal crystal    6824 Jan 24 22:46 fort.12
-rw-r--r-- 1 crystal crystal  509032 Jan 24 22:46 fort.13
-rw-r--r-- 1 crystal crystal     312 Jan 24 22:49 fort.19
-rw-r--r-- 1 crystal crystal  125820 Jan 24 22:46 fort.20
-rw-r--r-- 1 crystal crystal   31936 Jan 24 22:49 fort.21
-rw-r--r-- 1 crystal crystal    1712 Jan 24 22:25 fort.28
-rw-r--r-- 1 crystal crystal    1712 Sep 11 13:52 fort.29
-rw-r--r-- 1 crystal crystal   99376 Sep 11 13:51 fort.3
-rw-r--r-- 1 crystal crystal    1245 Jan 24 22:42 fort.33
-rw-r--r-- 1 crystal crystal   12102 Jan 24 22:46 fort.34
-rw-r--r-- 1 crystal crystal   47048 Jan 24 22:49 fort.61
-rw-r--r-- 1 crystal crystal   38496 Jan 24 22:49 fort.62
-rw-r--r-- 1 crystal crystal   11511 Jan 24 22:49 fort.65
-rw-r--r-- 1 crystal crystal     142 Jan 24 22:40 fort.7
-rw-r--r-- 1 crystal crystal 2375680 Sep 11 13:52 fort.70
-rw-r--r-- 1 crystal crystal      32 Jan 24 22:49 fort.8
-rw-r--r-- 1 crystal crystal  125820 Jan 24 22:49 fort.9
-rw-r--r-- 1 crystal crystal   99464 Jan 24 22:49 fort.95
-rw-r--r-- 1 crystal crystal  751485 Jan 24 22:42 fort.98
-rw-r--r-- 1 crystal crystal    2787 Jan 24 22:49 FREQINFO.DAT
-rw-r--r-- 1 crystal crystal     765 Jan 24 22:49 HESSFREQ.DAT
-rw-r--r-- 1 crystal crystal      22 Jan 24 22:42 HESSOPT.DAT
-rw-r--r-- 1 crystal crystal       0 Sep 11 13:51 MULLIKEN.DAT
-rw-r--r-- 1 crystal crystal       0 Jan 24 22:42 OPTalist
-rw-r--r-- 1 crystal crystal   12102 Jan 24 22:41 optc001
-rw-r--r-- 1 crystal crystal   12102 Jan 24 22:41 optc002
-rw-r--r-- 1 crystal crystal   12102 Jan 24 22:42 optc004
-rw-r--r-- 1 crystal crystal   12102 Jan 24 22:42 optc005
-rw-r--r-- 1 crystal crystal      32 Jan 24 22:42 OPTclist
-rw-r--r-- 1 crystal crystal    3568 Jan 24 22:42 OPTINFO.DAT
-rw-r--r-- 1 crystal crystal     700 Sep 11 14:47 SCAN6_619.7125_DISP_-0.9000
-rw-r--r-- 1 crystal crystal     700 Sep 11 14:48 SCAN6_619.7125_DISP_0.9000
-rw-r--r-- 1 crystal crystal     700 Sep 11 14:49 SCAN6_619.7125_DISP_1.8000
-rw-r--r-- 1 crystal crystal     700 Sep 11 10:14 SCAN7_1638.7570_DISP_-0.9000
-rw-r--r-- 1 crystal crystal     700 Sep 11 10:16 SCAN7_1638.7570_DISP_0.9000
-rw-r--r-- 1 crystal crystal     700 Sep 11 10:16 SCAN7_1638.7570_DISP_1.8000
-rw-r--r-- 1 crystal crystal     700 Sep 11 14:47 SCAN7_619.7125_DISP_-0.9000
-rw-r--r-- 1 crystal crystal     700 Sep 11 14:49 SCAN7_619.7125_DISP_0.9000
-rw-r--r-- 1 crystal crystal     700 Sep 11 14:49 SCAN7_619.7125_DISP_1.8000
-rw-r--r-- 1 crystal crystal     700 Sep 11 14:48 SCAN8_1441.1477_DISP_-0.9000
-rw-r--r-- 1 crystal crystal     700 Sep 11 14:48 SCAN8_1441.1477_DISP_0.9000
-rw-r--r-- 1 crystal crystal     700 Sep 11 10:14 SCAN8_3791.9372_DISP_-0.9000
-rw-r--r-- 1 crystal crystal     700 Sep 11 10:16 SCAN8_3791.9372_DISP_0.9000
-rw-r--r-- 1 crystal crystal     700 Sep 11 10:16 SCAN8_3791.9372_DISP_1.8000
-rw-r--r-- 1 crystal crystal     700 Sep 11 10:15 SCAN9_3894.5217_DISP_-0.9000
-rw-r--r-- 1 crystal crystal     700 Sep 11 10:15 SCAN9_3894.5217_DISP_0.9000
-rw-r--r-- 1 crystal crystal     448 Jan 24 22:42 scanlist
-rw-r--r-- 1 crystal crystal    2171 Jan 24 22:25 SCANPES.DAT
-rw-r--r-- 1 crystal crystal   30129 Jan 24 22:42 SCFOUT.LOG
-rw-r--r-- 1 crystal crystal    2619 Jan 24 22:25 TENS_RAMAN.DAT
wave function binary file /home/crystal/QMMC26/HA/diamond/diamond.f9
file fort.98 saved as /home/crystal/QMMC26/HA/diamond/diamond.f98
file HESSOPT.DAT saved as /home/crystal/QMMC26/HA/diamond/diamond.hessopt
file HESSFREQ.DAT saved as /home/crystal/QMMC26/HA/diamond/diamond.hessfreq
file OPTINFO.DAT saved as /home/crystal/QMMC26/HA/diamond/diamond.optinfo
file SCFOUT.LOG saved as /home/crystal/QMMC26/HA/diamond/diamond.SCFLOG
file FREQINFO.DAT saved as /home/crystal/QMMC26/HA/diamond/diamond.freqinfo
file SCANPES.DAT saved as /home/crystal/QMMC26/HA/diamond/diamond.scanpes
file BORN.DAT saved as /home/crystal/QMMC26/HA/diamond/diamond.born
file TENS_RAMAN.DAT saved as /home/crystal/QMMC26/HA/diamond/diamond.tensraman
file fort.13 saved as /home/crystal/QMMC26/HA/diamond/diamond.f13
file fort.28 saved as /home/crystal/QMMC26/HA/diamond/diamond.f28
file fort.20 saved as /home/crystal/QMMC26/HA/diamond/diamond.f20
file fort.33 saved as /home/crystal/QMMC26/HA/diamond/diamond.xyz
geometry input file fort.34 saved as /home/crystal/QMMC26/HA/diamond/diamond.gui
file optcxxx saved as /home/crystal/QMMC26/HA/diamond/diamond.optstory/optc001 /home/crystal/QMMC26/HA/diamond/diamond.optstory/optc002 /home/crystal/QMMC26/HA/diamond/diamond.optstory/optc004 /home/crystal/QMMC26/HA/diamond/diamond.optstory/optc005
echo: No match.
