/home/test/junior_crystal/TEST_CRY21_vs_CRY17/SVN_PUB_21_10_2020/bin/Linux-ifort_openmpi-3.1.4-icc_i64_clut/std/Pproperties
/scratch/daga/tmp_p28299
script started on node63
ECH3
100
POT3
100
5
END
************************************************
ANOTHER DROLLERY FILLED RUN OF THE PCRYSTAL CODE!
************************************************
Fri 18 Jul 2025 12:00:39 PM CEST
 PROCESS            0  OF           16  WORKING
 PROCESS            4  OF           16  WORKING
 PROCESS            5  OF           16  WORKING
 PROCESS            7  OF           16  WORKING
 PROCESS            3  OF           16  WORKING
 PROCESS            6  OF           16  WORKING
 PROCESS            1  OF           16  WORKING
 PROCESS            2  OF           16  WORKING
 PROCESS            9  OF           16  WORKING

         
 *******************************************************************************
 *                                                                             *
 *                               CRYSTAL17                                     *
 PROCESS           11  OF           16  WORKING
 *                      public : 1.0.2 - March 1st, 2018                       *
 PROCESS           14  OF           16  WORKING
 *                       HTTP://WWW.CRYSTAL.UNITO.IT                           *
 PROCESS            8  OF           16  WORKING
 *                                                                             *
 PROCESS           15  OF           16  WORKING
 *                              MAIN AUTHORS                                   *
 *                                                                             *
 PROCESS           10  OF           16  WORKING
 PROCESS           12  OF           16  WORKING
 *  R. DOVESI(1,11), V.R. SAUNDERS(2), C. ROETTI(1,11), R. ORLANDO(1,11),      *
 *  C.M. ZICOVICH-WILSON(1,3), F. PASCALE(4), B. CIVALLERI(1,11),              *
 *  K. DOLL(5), N.M. HARRISON(2,6), I.J. BUSH(7), Ph. D'ARCO(8),               *
 *  M. LLUNELL(9), M. CAUSA'(10), Y. NOEL(8), L. MASCHIO(1,11), A. ERBA(1,11)  *
 PROCESS           13  OF           16  WORKING
 *  M. RE'RAT(14), S. CASASSA(1,11)                                            *
 *                                                                             *
 *        CONTRIBUTIONS TO THE CODE HAVE ALSO BEEN GIVEN BY                    *
 *                                                                             *
 *  M. FERRABONE(1,11), M. DE LA PIERRE(1,11), M. FERRERO(1,11),               *
 *  J. BAIMA(1,11), E. ALBANESE(1,11), M.F. PEINTINGER(12), R. BAST(13),       *
 *  B. KIRTMAN(15), V. LACIVITA(1,11), R. DEMICHELIS(1,16)                     *
 *  G. BRANDEBURG(17), S. SALUSTRO(1,11), G. SANSONE(1,11)                     *
 *  M.T. RUGGIERO(18)                                                          *
 *                                                                             *
 * (1) THEORETICAL CHEMISTRY GROUP - UNIVERSITA' DI TORINO - TORINO (ITALY)    *
 * (2) COMPUTATIONAL SCIENCE & ENGINEERING DEPARTMENT - STFC DARESBURY (UK)    *
 * (3) UNIVERSIDAD AUTONOMA DEL ESTADO DE MORELOS - CUERNAVACA (MEXICO)        *
 * (4) UNIVERSITE' DE LORRAINE - NANCY (FRANCE)                                *
 * (5) UNIVERSITAET STUTTGART- STUTTGART (GERMANY)                             *
 * (6) IMPERIAL COLLEGE - LONDON (UK)                                          *
 * (7) OXFORD E-RESEARCH CENTRE - OXFORD (UK)                                  *
 * (8) UPMC - SORBONNE UNIVERSITES - PARIS (FRANCE)                            *
 * (9) UNIVERSIDAD DE BARCELONA - BARCELONA (SPAIN)                            *
 *(10) UNIVERSITA' DI NAPOLI "FEDERICO II" - NAPOLI (ITALY)                    *
 *(11) NIS - NANOSTRUCTURED INTERFACES AND SURFACES - TORINO (ITALY)           *
 *(12) MPI FUER CHEMISCHE ENERGIEKONVERSION - MUELHEIM AN DER RUHR (GERMANY)   *
 *(13) UNIVERSITY OF TROMSO - TROMSO (NORWAY)                                  *
 *(14) UNIVERSITE' DE PAU ET DES PAYS DE L'ADOUR - PAU (FRANCE)                *
 *(15) UNIVERSITY OF CALIFORNIA SANTA BARBARA - SANTA BARBARA (USA)            *
 *(16) CURTIN UNIVERSITY - PERTH (AUSTRALIA)                                   *
 *(17) UNIVERSITY COLLEGE LONDON - LONDON (UK)                                 *
 *(18) CAMBRIDGE UNIVERSITY - CAMBRIDGE (UK)                                   *
 *                                                                             *
 *******************************************************************************
 EEEEEEEEEE STARTING  DATE 18 07 2025 TIME 12:00:40.0

 *******************************************************************************
 NOTT-401 MOF                                                                    
 CRYSTAL - PROPERTIES - TYPE OF CALCULATION :  RESTRICTED CLOSED SHELL
 *******************************************************************************
 KOHN-SHAM HAMILTONIAN

 (EXCHANGE)[CORRELATION] FUNCTIONAL:(BECKE 88)[LEE-YANG-PARR]

 NON-LOCAL WEIGHTING FACTOR (EXCHANGE) =           0.9000
 NON-LOCAL WEIGHTING FACTOR [CORRELATION] =        0.8100

 HYBRID EXCHANGE - PERCENTAGE OF FOCK EXCHANGE    20.0000

 DIRECT LATTICE VECTOR COMPONENTS (ANGSTROM)
       -11.37603   11.37603    6.39119
        11.37603  -11.37603    6.39119
        11.37603   11.37603   -6.39119

 LATTICE PARAMETERS  (ANGSTROM AND DEGREES) - PRIMITIVE CELL
       A          B          C         ALPHA      BETA     GAMMA        VOLUME
   17.31113   17.31113   17.31113     97.8341   97.8341  136.6680    3308.43712
 *******************************************************************************
 N. OF ATOMS PER CELL       128 COULOMB OVERLAP TOL          (T1) 10**   -7
 NUMBER OF SHELLS           968 COULOMB PENETRATION TOL      (T2) 10**   -7
 NUMBER OF AO              2152 EXCHANGE OVERLAP TOL         (T3) 10**   -7
 N. OF ELECTRONS PER CELL   928 EXCHANGE PSEUDO OVP (F(G))   (T4) 10**   -9
 CORE ELECTRONS PER CELL    400 EXCHANGE PSEUDO OVP (P(G))   (T5) 10**  -30
 N. OF SYMMETRY OPERATORS    16 POLE ORDER IN MONO ZONE                   4
 *******************************************************************************
   ATOM N.AT.  SHELL    X(A)      Y(A)      Z(A)      EXAD       N.ELECT.
 *******************************************************************************
    1   21 SC   11     5.688   -10.064     3.196   3.450E-01      19.449
    2   21 SC   11    -5.688    -1.312     3.196   3.450E-01      19.449
    3   21 SC   11   -18.376    11.376    -0.000   3.450E-01      19.449
    4   21 SC   11    -4.376     0.000     0.000   3.450E-01      19.449
    5   21 SC   11     5.688    -1.312     3.196   3.450E-01      19.449
    6   21 SC   11     5.688     1.312    -3.196   3.450E-01      19.449
    7   21 SC   11    -4.376    11.376    -0.000   3.450E-01      19.449
    8   21 SC   11     4.376    -0.000     0.000   3.450E-01      19.449
    9   16 S    10    -0.000     0.465    -1.795   5.207E-01      16.044
   10   16 S    10    -0.000    10.911    -1.795   5.207E-01      16.044
   11   16 S    10     0.000    -0.465     1.795   5.207E-01      16.044
   12   16 S    10     0.000   -10.911     1.795   5.207E-01      16.044
   13   16 S    10     5.223     5.688    -1.400   5.207E-01      16.044
   14   16 S    10    -5.223     5.688    -1.400   5.207E-01      16.044
   15   16 S    10    -5.223    -5.688     1.400   5.207E-01      16.044
   16   16 S    10     5.223    -5.688     1.400   5.207E-01      16.044
   17    8 O     8    -5.722    -0.034    -1.598   2.535E-01       8.600
   18    8 O     8    -5.654     0.034     4.793   2.535E-01       8.600
   19    8 O     8    -5.722     0.034     1.598   2.535E-01       8.600
   20    8 O     8    -5.654    -0.034    -4.793   2.535E-01       8.600
   21    8 O     8     5.722     0.034     1.598   2.535E-01       8.600
   22    8 O     8     5.654    -0.034    -4.793   2.535E-01       8.600
   23    8 O     8     5.722    -0.034    -1.598   2.535E-01       8.600
   24    8 O     8     5.654     0.034     4.793   2.535E-01       8.600
   25    1 H     4    -6.403    -0.715    -1.598   8.000E-01       0.823
   26    1 H     4    -4.973     0.715     4.793   8.000E-01       0.823
   27    1 H     4    -6.403     0.715     1.598   8.000E-01       0.823
   28    1 H     4    -4.973    -0.715    -4.793   8.000E-01       0.823
   29    1 H     4     6.403     0.715     1.598   8.000E-01       0.823
   30    1 H     4     4.973    -0.715    -4.793   8.000E-01       0.823
   31    1 H     4     6.403    -0.715    -1.598   8.000E-01       0.823
   32    1 H     4     4.973     0.715     4.793   8.000E-01       0.823
   33    8 O     8    -3.544     1.205    -3.341   2.535E-01       8.636
   34    8 O     8    -7.832    -1.205     3.050   2.535E-01       8.636
   35    8 O     8    -3.544    -1.205     3.341   2.535E-01       8.636
   36    8 O     8    -7.832     1.205    -3.050   2.535E-01       8.636
   37    8 O     8    -6.893    -2.144    -6.246   2.535E-01       8.636
   38    8 O     8    -4.483     2.144     0.145   2.535E-01       8.636
   39    8 O     8    -4.483    -2.144    -0.145   2.535E-01       8.636
   40    8 O     8    -6.893     2.144     6.246   2.535E-01       8.636
   41    8 O     8     3.544    -1.205     3.341   2.535E-01       8.636
   42    8 O     8     7.832     1.205    -3.050   2.535E-01       8.636
   43    8 O     8     3.544     1.205    -3.341   2.535E-01       8.636
   44    8 O     8     7.832    -1.205     3.050   2.535E-01       8.636
   45    8 O     8     6.893     2.144     6.246   2.535E-01       8.636
   46    8 O     8     4.483    -2.144    -0.145   2.535E-01       8.636
   47    8 O     8     4.483     2.144     0.145   2.535E-01       8.636
   48    8 O     8     6.893    -2.144    -6.246   2.535E-01       8.636
   49    8 O     8    -5.392     2.828    -1.785   2.535E-01       8.606
   50    8 O     8    -5.984    -2.828     4.606   2.535E-01       8.606
   51    8 O     8    -5.392    -2.828     1.785   2.535E-01       8.606
   52    8 O     8    -5.984     2.828    -4.606   2.535E-01       8.606
   53    8 O     8    -8.516    -0.296     4.981   2.535E-01       8.606
   54    8 O     8    -2.860     0.296    -1.410   2.535E-01       8.606
   55    8 O     8    -2.860    -0.296     1.410   2.535E-01       8.606
   56    8 O     8    -8.516     0.296    -4.981   2.535E-01       8.606
   57    8 O     8     5.392    -2.828     1.785   2.535E-01       8.606
   58    8 O     8     5.984     2.828    -4.606   2.535E-01       8.606
   59    8 O     8     5.392     2.828    -1.785   2.535E-01       8.606
   60    8 O     8     5.984    -2.828     4.606   2.535E-01       8.606
   61    8 O     8     8.516     0.296    -4.981   2.535E-01       8.606
   62    8 O     8     2.860    -0.296     1.410   2.535E-01       8.606
   63    8 O     8     2.860     0.296    -1.410   2.535E-01       8.606
   64    8 O     8     8.516    -0.296     4.981   2.535E-01       8.606
   65    6 C     8    -2.636     0.817    -2.547   8.792E-01       5.424
   66    6 C     8    -8.740    -0.817     3.844   8.792E-01       5.424
   67    6 C     8    -2.636    -0.817     2.547   8.792E-01       5.424
   68    6 C     8    -8.740     0.817    -3.844   8.792E-01       5.424
   69    6 C     8    -6.505    -3.052     5.742   8.792E-01       5.424
   70    6 C     8    -4.871     3.052    -0.649   8.792E-01       5.424
   71    6 C     8    -4.871    -3.052     0.649   8.792E-01       5.424
   72    6 C     8    -6.505     3.052    -5.742   8.792E-01       5.424
   73    6 C     8     2.636    -0.817     2.547   8.792E-01       5.424
   74    6 C     8     8.740     0.817    -3.844   8.792E-01       5.424
   75    6 C     8     2.636     0.817    -2.547   8.792E-01       5.424
   76    6 C     8     8.740    -0.817     3.844   8.792E-01       5.424
   77    6 C     8     6.505     3.052    -5.742   8.792E-01       5.424
   78    6 C     8     4.871    -3.052     0.649   8.792E-01       5.424
   79    6 C     8     4.871     3.052    -0.649   8.792E-01       5.424
   80    6 C     8     6.505    -3.052     5.742   8.792E-01       5.424
   81    6 C     8    -1.233     0.965    -2.932   8.792E-01       5.942
   82    6 C     8   -10.143    -0.965     3.459   8.792E-01       5.942
   83    6 C     8    -1.233    -0.965     2.932   8.792E-01       5.942
   84    6 C     8   -10.143     0.965    -3.459   8.792E-01       5.942
   85    6 C     8     4.723     6.921    -0.263   8.792E-01       5.942
   86    6 C     8    -4.723     4.455    -0.263   8.792E-01       5.942
   87    6 C     8    -4.723    -4.455     0.263   8.792E-01       5.942
   88    6 C     8     4.723    -6.921     0.263   8.792E-01       5.942
   89    6 C     8     1.233    -0.965     2.932   8.792E-01       5.942
   90    6 C     8    10.143     0.965    -3.459   8.792E-01       5.942
   91    6 C     8     1.233     0.965    -2.932   8.792E-01       5.942
   92    6 C     8    10.143    -0.965     3.459   8.792E-01       5.942
   93    6 C     8    -4.723    -6.921     0.263   8.792E-01       5.942
   94    6 C     8     4.723    -4.455     0.263   8.792E-01       5.942
   95    6 C     8     4.723     4.455    -0.263   8.792E-01       5.942
   96    6 C     8    -4.723     6.921    -0.263   8.792E-01       5.942
   97    6 C     8    -0.702     1.475    -4.084   8.792E-01       5.983
   98    6 C     8     0.702     9.901    -4.084   8.792E-01       5.983
   99    6 C     8    -0.702    -1.475     4.084   8.792E-01       5.983
  100    6 C     8     0.702    -9.901     4.084   8.792E-01       5.983
  101    6 C     8     4.213     6.390     0.888   8.792E-01       5.983
  102    6 C     8    -4.213     4.986     0.888   8.792E-01       5.983
  103    6 C     8    -4.213    -4.986    -0.888   8.792E-01       5.983
  104    6 C     8     4.213    -6.390    -0.888   8.792E-01       5.983
  105    6 C     8     0.702    -1.475     4.084   8.792E-01       5.983
  106    6 C     8    -0.702    -9.901     4.084   8.792E-01       5.983
  107    6 C     8     0.702     1.475    -4.084   8.792E-01       5.983
  108    6 C     8    -0.702     9.901    -4.084   8.792E-01       5.983
  109    6 C     8    -4.213    -6.390    -0.888   8.792E-01       5.983
  110    6 C     8     4.213    -4.986    -0.888   8.792E-01       5.983
  111    6 C     8     4.213     4.986     0.888   8.792E-01       5.983
  112    6 C     8    -4.213     6.390     0.888   8.792E-01       5.983
  113    1 H     4    -1.318     1.839    -4.893   8.000E-01       0.951
  114    1 H     4   -10.058    -1.839     1.498   8.000E-01       0.951
  115    1 H     4    -1.318    -1.839     4.893   8.000E-01       0.951
  116    1 H     4   -10.058     1.839    -1.498   8.000E-01       0.951
  117    1 H     4     3.849     7.006     1.698   8.000E-01       0.951
  118    1 H     4    -3.849     4.370     1.698   8.000E-01       0.951
  119    1 H     4    -3.849    -4.370    -1.698   8.000E-01       0.951
  120    1 H     4     3.849    -7.006    -1.698   8.000E-01       0.951
  121    1 H     4     1.318    -1.839     4.893   8.000E-01       0.951
  122    1 H     4    10.058     1.839    -1.498   8.000E-01       0.951
  123    1 H     4     1.318     1.839    -4.893   8.000E-01       0.951
  124    1 H     4    10.058    -1.839     1.498   8.000E-01       0.951
  125    1 H     4    -3.849    -7.006    -1.698   8.000E-01       0.951
  126    1 H     4     3.849    -4.370    -1.698   8.000E-01       0.951
  127    1 H     4     3.849     4.370     1.698   8.000E-01       0.951
  128    1 H     4    -3.849     7.006     1.698   8.000E-01       0.951
 *******************************************************************************
 DE(K)                   0.000E+00  ENERGY LEVEL SHIFTING        0.00000
 TOTAL ENERGY -1.4123039214966E+04  CONVERGENCE ON ENER       -1.213E-08
 KIN. ENERGY   1.4094477663067E+04  VIR. COEFF.           1.03234600E+00
 N. OF SCF CYCLES               16  FERMI ENERGY              -0.236E+00
 WEIGHT OF F(I) IN F(I+1)      80
 SHRINK. FACT.(MONKH.)     2  2  2  SHRINKING FACTOR(GILAT NET)        2
 NUMBER OF K POINTS IN THE IBZ   4  CELL VOLUME (A.U.)      21507.076225
 *******************************************************************************

 GCALCO - MAX INDICES DIRECT LATTICE VECTOR    16    16    11
 NO.OF VECTORS CREATED 6999 STARS  512 RMAX   334.34830 BOHR
 TTTTTTTTTTTTTTTTTTTTTTTTTTTTTT gordsh1     TELAPSE        0.23 TCPU        0.19

 MATRIX SIZE: P(G) 5545104, F(G)  532232, P(G) IRR  177452, F(G) IRR   34546
 MAX G-VECTOR INDEX FOR 1- AND 2-ELECTRON INTEGRALS 155


 CAPPA:IS1  2;IS2  2;IS3  2; K PTS MONK NET   4; SYMMOPS:K SPACE  16;G SPACE  16


 3D3D3D3D3D3D3D3D3D3D3D3D3D3D3D3D3D3D3D3D3D3D3D3D3D3D3D3D3D3D3D3D3D3D3D3D3D3D3D
 3D DENSITY, GRID IS 100*100*100
 TTTTTTTTTTTTTTTTTTTTTTTTTTTTTT CHARGE      TELAPSE      258.36 TCPU      258.21
 TTTTTTTTTTTTTTTTTTTTTTTTTTTTTT ECH3        TELAPSE      258.36 TCPU      258.21
 PLPLPLPLPLPLPLPLPLPLPLPLPLPLPLPLPLPLPLPLPLPLPLPLPLPLPLPLPLPLPLPLPLPLPLPL

  MULTIPOLAR EXPANSION UP TO L=  4
  MULTIPOLE SIGN CONVENTION : ELECTRON CHARGE = +1

 PLPLPLPLPLPLPLPLPLPLPLPLPLPLPLPLPLPLPLPLPLPLPLPLPLPLPLPLPLPLPLPLPLPLPLPL


 MULTIPOLE ANALYSIS BY SHELLS
 L=  0 M=  0   1.999E+00  2.002E+00  2.109E+00 -1.523E-01  2.072E-01  5.987E+00
               6.134E+00  4.236E-02  4.909E-01  5.007E-01  1.297E-01  1.999E+00
               2.002E+00  2.109E+00 -1.523E-01  2.072E-01  5.987E+00  6.134E+00
               4.236E-02  4.909E-01  5.007E-01  1.297E-01  1.999E+00  2.002E+00
               2.109E+00 -1.523E-01  2.072E-01  5.987E+00  6.134E+00  4.236E-02
               4.909E-01  5.007E-01  1.297E-01  1.999E+00  2.002E+00  2.109E+00
              -1.523E-01  2.072E-01  5.987E+00  6.134E+00  4.236E-02  4.909E-01
               5.007E-01  1.297E-01  1.999E+00  2.002E+00  2.109E+00 -1.523E-01
               2.072E-01  5.987E+00  6.134E+00  4.236E-02  4.909E-01  5.007E-01
               1.297E-01  1.999E+00  2.002E+00  2.109E+00 -1.523E-01  2.072E-01
               5.987E+00  6.134E+00  4.236E-02  4.909E-01  5.007E-01  1.297E-01
               1.999E+00  2.002E+00  2.109E+00 -1.523E-01  2.072E-01  5.987E+00
               6.134E+00  4.236E-02  4.909E-01  5.007E-01  1.297E-01  1.999E+00
               2.002E+00  2.109E+00 -1.523E-01  2.072E-01  5.987E+00  6.134E+00
               4.236E-02  4.909E-01  5.007E-01  1.297E-01  2.010E+00  4.716E-01
               1.500E+00  1.814E+00  1.283E-01  4.283E+00  1.817E+00  3.371E+00
               5.147E-01  1.345E-01  2.010E+00  4.716E-01  1.500E+00  1.814E+00
               1.283E-01  4.283E+00  1.817E+00  3.371E+00  5.147E-01  1.345E-01
               2.010E+00  4.716E-01  1.500E+00  1.814E+00  1.283E-01  4.283E+00
               1.817E+00  3.371E+00  5.147E-01  1.345E-01  2.010E+00  4.716E-01
               1.500E+00  1.814E+00  1.283E-01  4.283E+00  1.817E+00  3.371E+00
               5.147E-01  1.345E-01  2.010E+00  4.716E-01  1.500E+00  1.814E+00
               1.283E-01  4.283E+00  1.817E+00  3.371E+00  5.147E-01  1.345E-01
               2.010E+00  4.716E-01  1.500E+00  1.814E+00  1.283E-01  4.283E+00
               1.817E+00  3.371E+00  5.147E-01  1.345E-01  2.010E+00  4.716E-01
               1.500E+00  1.814E+00  1.283E-01  4.283E+00  1.817E+00  3.371E+00
               5.147E-01  1.345E-01  2.010E+00  4.716E-01  1.500E+00  1.814E+00
               1.283E-01  4.283E+00  1.817E+00  3.371E+00  5.147E-01  1.345E-01
               7.915E-01  1.181E+00  7.154E-01  1.023E+00  1.917E+00  1.804E+00
               1.143E+00  2.540E-02  7.915E-01  1.181E+00  7.154E-01  1.023E+00
               1.917E+00  1.804E+00  1.143E+00  2.540E-02  7.915E-01  1.181E+00
               7.154E-01  1.023E+00  1.917E+00  1.804E+00  1.143E+00  2.540E-02
               7.915E-01  1.181E+00  7.154E-01  1.023E+00  1.917E+00  1.804E+00
               1.143E+00  2.540E-02  7.915E-01  1.181E+00  7.154E-01  1.023E+00
               1.917E+00  1.804E+00  1.143E+00  2.540E-02  7.915E-01  1.181E+00
               7.154E-01  1.023E+00  1.917E+00  1.804E+00  1.143E+00  2.540E-02
               7.915E-01  1.181E+00  7.154E-01  1.023E+00  1.917E+00  1.804E+00
               1.143E+00  2.540E-02  7.915E-01  1.181E+00  7.154E-01  1.023E+00
               1.917E+00  1.804E+00  1.143E+00  2.540E-02  2.543E-01  3.107E-01
               1.898E-01  6.777E-02  2.543E-01  3.107E-01  1.898E-01  6.777E-02
               2.543E-01  3.107E-01  1.898E-01  6.777E-02  2.543E-01  3.107E-01
               1.898E-01  6.777E-02  2.543E-01  3.107E-01  1.898E-01  6.777E-02
               2.543E-01  3.107E-01  1.898E-01  6.777E-02  2.543E-01  3.107E-01
               1.898E-01  6.777E-02  2.543E-01  3.107E-01  1.898E-01  6.777E-02
               7.920E-01  1.180E+00  7.342E-01  1.012E+00  1.914E+00  1.765E+00
               1.185E+00  5.358E-02  7.920E-01  1.180E+00  7.342E-01  1.012E+00
               1.914E+00  1.765E+00  1.185E+00  5.358E-02  7.920E-01  1.180E+00
               7.342E-01  1.012E+00  1.914E+00  1.765E+00  1.185E+00  5.358E-02
               7.920E-01  1.180E+00  7.342E-01  1.012E+00  1.914E+00  1.765E+00
               1.185E+00  5.358E-02  7.920E-01  1.180E+00  7.342E-01  1.012E+00
               1.914E+00  1.765E+00  1.185E+00  5.358E-02  7.920E-01  1.180E+00
               7.342E-01  1.012E+00  1.914E+00  1.765E+00  1.185E+00  5.358E-02
               7.920E-01  1.180E+00  7.342E-01  1.012E+00  1.914E+00  1.765E+00
               1.185E+00  5.358E-02  7.920E-01  1.180E+00  7.342E-01  1.012E+00
               1.914E+00  1.765E+00  1.185E+00  5.358E-02  7.920E-01  1.180E+00
               7.342E-01  1.012E+00  1.914E+00  1.765E+00  1.185E+00  5.358E-02
               7.920E-01  1.180E+00  7.342E-01  1.012E+00  1.914E+00  1.765E+00
               1.185E+00  5.358E-02  7.920E-01  1.180E+00  7.342E-01  1.012E+00
               1.914E+00  1.765E+00  1.185E+00  5.358E-02  7.920E-01  1.180E+00
               7.342E-01  1.012E+00  1.914E+00  1.765E+00  1.185E+00  5.358E-02
               7.920E-01  1.180E+00  7.342E-01  1.012E+00  1.914E+00  1.765E+00
               1.185E+00  5.358E-02  7.920E-01  1.180E+00  7.342E-01  1.012E+00
               1.914E+00  1.765E+00  1.185E+00  5.358E-02  7.920E-01  1.180E+00
               7.342E-01  1.012E+00  1.914E+00  1.765E+00  1.185E+00  5.358E-02
               7.920E-01  1.180E+00  7.342E-01  1.012E+00  1.914E+00  1.765E+00
               1.185E+00  5.358E-02  7.919E-01  1.180E+00  7.301E-01  1.019E+00
               1.920E+00  1.786E+00  1.117E+00  6.219E-02  7.919E-01  1.180E+00
               7.301E-01  1.019E+00  1.920E+00  1.786E+00  1.117E+00  6.219E-02
               7.919E-01  1.180E+00  7.301E-01  1.019E+00  1.920E+00  1.786E+00
               1.117E+00  6.219E-02  7.919E-01  1.180E+00  7.301E-01  1.019E+00
               1.920E+00  1.786E+00  1.117E+00  6.219E-02  7.919E-01  1.180E+00
               7.301E-01  1.019E+00  1.920E+00  1.786E+00  1.117E+00  6.219E-02
               7.919E-01  1.180E+00  7.301E-01  1.019E+00  1.920E+00  1.786E+00
               1.117E+00  6.219E-02  7.919E-01  1.180E+00  7.301E-01  1.019E+00
               1.920E+00  1.786E+00  1.117E+00  6.219E-02  7.919E-01  1.180E+00
               7.301E-01  1.019E+00  1.920E+00  1.786E+00  1.117E+00  6.219E-02
               7.919E-01  1.180E+00  7.301E-01  1.019E+00  1.920E+00  1.786E+00
               1.117E+00  6.219E-02  7.919E-01  1.180E+00  7.301E-01  1.019E+00
               1.920E+00  1.786E+00  1.117E+00  6.219E-02  7.919E-01  1.180E+00
               7.301E-01  1.019E+00  1.920E+00  1.786E+00  1.117E+00  6.219E-02
               7.919E-01  1.180E+00  7.301E-01  1.019E+00  1.920E+00  1.786E+00
               1.117E+00  6.219E-02  7.919E-01  1.180E+00  7.301E-01  1.019E+00
               1.920E+00  1.786E+00  1.117E+00  6.219E-02  7.919E-01  1.180E+00
               7.301E-01  1.019E+00  1.920E+00  1.786E+00  1.117E+00  6.219E-02
               7.919E-01  1.180E+00  7.301E-01  1.019E+00  1.920E+00  1.786E+00
               1.117E+00  6.219E-02  7.919E-01  1.180E+00  7.301E-01  1.019E+00
               1.920E+00  1.786E+00  1.117E+00  6.219E-02  8.543E-01  1.120E+00
               7.952E-01  3.133E-01  1.231E+00  1.986E-01  7.869E-01  1.245E-01
               8.543E-01  1.120E+00  7.952E-01  3.133E-01  1.231E+00  1.986E-01
               7.869E-01  1.245E-01  8.543E-01  1.120E+00  7.952E-01  3.133E-01
               1.231E+00  1.986E-01  7.869E-01  1.245E-01  8.543E-01  1.120E+00
               7.952E-01  3.133E-01  1.231E+00  1.986E-01  7.869E-01  1.245E-01
               8.543E-01  1.120E+00  7.952E-01  3.133E-01  1.231E+00  1.986E-01
               7.869E-01  1.245E-01  8.543E-01  1.120E+00  7.952E-01  3.133E-01
               1.231E+00  1.986E-01  7.869E-01  1.245E-01  8.543E-01  1.120E+00
               7.952E-01  3.133E-01  1.231E+00  1.986E-01  7.869E-01  1.245E-01
               8.543E-01  1.120E+00  7.952E-01  3.133E-01  1.231E+00  1.986E-01
               7.869E-01  1.245E-01  8.543E-01  1.120E+00  7.952E-01  3.133E-01
               1.231E+00  1.986E-01  7.869E-01  1.245E-01  8.543E-01  1.120E+00
               7.952E-01  3.133E-01  1.231E+00  1.986E-01  7.869E-01  1.245E-01
               8.543E-01  1.120E+00  7.952E-01  3.133E-01  1.231E+00  1.986E-01
               7.869E-01  1.245E-01  8.543E-01  1.120E+00  7.952E-01  3.133E-01
               1.231E+00  1.986E-01  7.869E-01  1.245E-01  8.543E-01  1.120E+00
               7.952E-01  3.133E-01  1.231E+00  1.986E-01  7.869E-01  1.245E-01
               8.543E-01  1.120E+00  7.952E-01  3.133E-01  1.231E+00  1.986E-01
               7.869E-01  1.245E-01  8.543E-01  1.120E+00  7.952E-01  3.133E-01
               1.231E+00  1.986E-01  7.869E-01  1.245E-01  8.543E-01  1.120E+00
               7.952E-01  3.133E-01  1.231E+00  1.986E-01  7.869E-01  1.245E-01
               8.538E-01  1.121E+00  7.747E-01  4.411E-01  1.348E+00 -3.639E-02
               1.410E+00  3.040E-02  8.538E-01  1.121E+00  7.747E-01  4.411E-01
               1.348E+00 -3.639E-02  1.410E+00  3.040E-02  8.538E-01  1.121E+00
               7.747E-01  4.411E-01  1.348E+00 -3.639E-02  1.410E+00  3.040E-02
               8.538E-01  1.121E+00  7.747E-01  4.411E-01  1.348E+00 -3.639E-02
               1.410E+00  3.040E-02  8.538E-01  1.121E+00  7.747E-01  4.411E-01
               1.348E+00 -3.639E-02  1.410E+00  3.040E-02  8.538E-01  1.121E+00
               7.747E-01  4.411E-01  1.348E+00 -3.639E-02  1.410E+00  3.040E-02
               8.538E-01  1.121E+00  7.747E-01  4.411E-01  1.348E+00 -3.639E-02
               1.410E+00  3.040E-02  8.538E-01  1.121E+00  7.747E-01  4.411E-01
               1.348E+00 -3.639E-02  1.410E+00  3.040E-02  8.538E-01  1.121E+00
               7.747E-01  4.411E-01  1.348E+00 -3.639E-02  1.410E+00  3.040E-02
               8.538E-01  1.121E+00  7.747E-01  4.411E-01  1.348E+00 -3.639E-02
               1.410E+00  3.040E-02  8.538E-01  1.121E+00  7.747E-01  4.411E-01
               1.348E+00 -3.639E-02  1.410E+00  3.040E-02  8.538E-01  1.121E+00
               7.747E-01  4.411E-01  1.348E+00 -3.639E-02  1.410E+00  3.040E-02
               8.538E-01  1.121E+00  7.747E-01  4.411E-01  1.348E+00 -3.639E-02
               1.410E+00  3.040E-02  8.538E-01  1.121E+00  7.747E-01  4.411E-01
               1.348E+00 -3.639E-02  1.410E+00  3.040E-02  8.538E-01  1.121E+00
               7.747E-01  4.411E-01  1.348E+00 -3.639E-02  1.410E+00  3.040E-02
               8.538E-01  1.121E+00  7.747E-01  4.411E-01  1.348E+00 -3.639E-02
               1.410E+00  3.040E-02  8.537E-01  1.121E+00  7.594E-01  4.219E-01
               1.380E+00 -7.164E-02  1.486E+00  3.266E-02  8.537E-01  1.121E+00
               7.594E-01  4.219E-01  1.380E+00 -7.164E-02  1.486E+00  3.266E-02
               8.537E-01  1.121E+00  7.594E-01  4.219E-01  1.380E+00 -7.164E-02
               1.486E+00  3.266E-02  8.537E-01  1.121E+00  7.594E-01  4.219E-01
               1.380E+00 -7.164E-02  1.486E+00  3.266E-02  8.537E-01  1.121E+00
               7.594E-01  4.219E-01  1.380E+00 -7.164E-02  1.486E+00  3.266E-02
               8.537E-01  1.121E+00  7.594E-01  4.219E-01  1.380E+00 -7.164E-02
               1.486E+00  3.266E-02  8.537E-01  1.121E+00  7.594E-01  4.219E-01
               1.380E+00 -7.164E-02  1.486E+00  3.266E-02  8.537E-01  1.121E+00
               7.594E-01  4.219E-01  1.380E+00 -7.164E-02  1.486E+00  3.266E-02
               8.537E-01  1.121E+00  7.594E-01  4.219E-01  1.380E+00 -7.164E-02
               1.486E+00  3.266E-02  8.537E-01  1.121E+00  7.594E-01  4.219E-01
               1.380E+00 -7.164E-02  1.486E+00  3.266E-02  8.537E-01  1.121E+00
               7.594E-01  4.219E-01  1.380E+00 -7.164E-02  1.486E+00  3.266E-02
               8.537E-01  1.121E+00  7.594E-01  4.219E-01  1.380E+00 -7.164E-02
               1.486E+00  3.266E-02  8.537E-01  1.121E+00  7.594E-01  4.219E-01
               1.380E+00 -7.164E-02  1.486E+00  3.266E-02  8.537E-01  1.121E+00
               7.594E-01  4.219E-01  1.380E+00 -7.164E-02  1.486E+00  3.266E-02
               8.537E-01  1.121E+00  7.594E-01  4.219E-01  1.380E+00 -7.164E-02
               1.486E+00  3.266E-02  8.537E-01  1.121E+00  7.594E-01  4.219E-01
               1.380E+00 -7.164E-02  1.486E+00  3.266E-02  2.768E-01  2.557E-01
               3.966E-01  2.211E-02  2.768E-01  2.557E-01  3.966E-01  2.211E-02
               2.768E-01  2.557E-01  3.966E-01  2.211E-02  2.768E-01  2.557E-01
               3.966E-01  2.211E-02  2.768E-01  2.557E-01  3.966E-01  2.211E-02
               2.768E-01  2.557E-01  3.966E-01  2.211E-02  2.768E-01  2.557E-01
               3.966E-01  2.211E-02  2.768E-01  2.557E-01  3.966E-01  2.211E-02
               2.768E-01  2.557E-01  3.966E-01  2.211E-02  2.768E-01  2.557E-01
               3.966E-01  2.211E-02  2.768E-01  2.557E-01  3.966E-01  2.211E-02
               2.768E-01  2.557E-01  3.966E-01  2.211E-02  2.768E-01  2.557E-01
               3.966E-01  2.211E-02  2.768E-01  2.557E-01  3.966E-01  2.211E-02
               2.768E-01  2.557E-01  3.966E-01  2.211E-02  2.768E-01  2.557E-01
               3.966E-01  2.211E-02

 MULTIPOLE ANALYSIS BY ATOMS (L=0: NET CHARGE)
 L=  0 M=  0  -1.551E+00 -1.551E+00 -1.551E+00 -1.551E+00 -1.551E+00 -1.551E+00
              -1.551E+00 -1.551E+00  4.370E-02  4.370E-02  4.370E-02  4.370E-02
               4.370E-02  4.370E-02  4.370E-02  4.370E-02  5.997E-01  5.997E-01
               5.997E-01  5.997E-01  5.997E-01  5.997E-01  5.997E-01  5.997E-01
              -1.774E-01 -1.774E-01 -1.774E-01 -1.774E-01 -1.774E-01 -1.774E-01
              -1.774E-01 -1.774E-01  6.356E-01  6.356E-01  6.356E-01  6.356E-01
               6.356E-01  6.356E-01  6.356E-01  6.356E-01  6.356E-01  6.356E-01
               6.356E-01  6.356E-01  6.356E-01  6.356E-01  6.356E-01  6.356E-01
               6.060E-01  6.060E-01  6.060E-01  6.060E-01  6.060E-01  6.060E-01
               6.060E-01  6.060E-01  6.060E-01  6.060E-01  6.060E-01  6.060E-01
               6.060E-01  6.060E-01  6.060E-01  6.060E-01 -5.762E-01 -5.762E-01
              -5.762E-01 -5.762E-01 -5.762E-01 -5.762E-01 -5.762E-01 -5.762E-01
              -5.762E-01 -5.762E-01 -5.762E-01 -5.762E-01 -5.762E-01 -5.762E-01
              -5.762E-01 -5.762E-01 -5.757E-02 -5.757E-02 -5.757E-02 -5.757E-02
              -5.757E-02 -5.757E-02 -5.757E-02 -5.757E-02 -5.757E-02 -5.757E-02
              -5.757E-02 -5.757E-02 -5.757E-02 -5.757E-02 -5.757E-02 -5.757E-02
              -1.672E-02 -1.672E-02 -1.672E-02 -1.672E-02 -1.672E-02 -1.672E-02
              -1.672E-02 -1.672E-02 -1.672E-02 -1.672E-02 -1.672E-02 -1.672E-02
              -1.672E-02 -1.672E-02 -1.672E-02 -1.672E-02 -4.874E-02 -4.874E-02
              -4.874E-02 -4.874E-02 -4.874E-02 -4.874E-02 -4.874E-02 -4.874E-02
              -4.874E-02 -4.874E-02 -4.874E-02 -4.874E-02 -4.874E-02 -4.874E-02
              -4.874E-02 -4.874E-02

 NET ATOMIC CHARGE AND SPHEROPOLE (A.U.)
 ATOM N.          Q           QR2       ATOM N.          Q           QR2
     1    21 -1.55091E+00  2.37967E+01     2    21 -1.55091E+00  2.37967E+01
     3    21 -1.55091E+00  2.37967E+01     4    21 -1.55091E+00  2.37967E+01
     5    21 -1.55091E+00  2.37967E+01     6    21 -1.55091E+00  2.37967E+01
     7    21 -1.55091E+00  2.37967E+01     8    21 -1.55091E+00  2.37967E+01
     9    16  4.37004E-02  2.69230E+01    10    16  4.37004E-02  2.69230E+01
    11    16  4.37004E-02  2.69230E+01    12    16  4.37004E-02  2.69230E+01
    13    16  4.37004E-02  2.69230E+01    14    16  4.37004E-02  2.69230E+01
    15    16  4.37004E-02  2.69230E+01    16    16  4.37004E-02  2.69230E+01
    17     8  5.99732E-01  1.38891E+01    18     8  5.99732E-01  1.38891E+01
    19     8  5.99732E-01  1.38891E+01    20     8  5.99732E-01  1.38891E+01
    21     8  5.99732E-01  1.38891E+01    22     8  5.99732E-01  1.38891E+01
    23     8  5.99732E-01  1.38891E+01    24     8  5.99732E-01  1.38891E+01
    25     1 -1.77413E-01  1.24230E+00    26     1 -1.77413E-01  1.24230E+00
    27     1 -1.77413E-01  1.24230E+00    28     1 -1.77413E-01  1.24230E+00
    29     1 -1.77413E-01  1.24230E+00    30     1 -1.77413E-01  1.24230E+00
    31     1 -1.77413E-01  1.24230E+00    32     1 -1.77413E-01  1.24230E+00
    33     8  6.35644E-01  1.33925E+01    34     8  6.35644E-01  1.33925E+01
    35     8  6.35644E-01  1.33925E+01    36     8  6.35644E-01  1.33925E+01
    37     8  6.35644E-01  1.33925E+01    38     8  6.35644E-01  1.33925E+01
    39     8  6.35644E-01  1.33925E+01    40     8  6.35644E-01  1.33925E+01
    41     8  6.35644E-01  1.33925E+01    42     8  6.35644E-01  1.33925E+01
    43     8  6.35644E-01  1.33925E+01    44     8  6.35644E-01  1.33925E+01
    45     8  6.35644E-01  1.33925E+01    46     8  6.35644E-01  1.33925E+01
    47     8  6.35644E-01  1.33925E+01    48     8  6.35644E-01  1.33925E+01
    49     8  6.05989E-01  1.31615E+01    50     8  6.05989E-01  1.31615E+01
    51     8  6.05989E-01  1.31615E+01    52     8  6.05989E-01  1.31615E+01
    53     8  6.05989E-01  1.31615E+01    54     8  6.05989E-01  1.31615E+01
    55     8  6.05989E-01  1.31615E+01    56     8  6.05989E-01  1.31615E+01
    57     8  6.05989E-01  1.31615E+01    58     8  6.05989E-01  1.31615E+01
    59     8  6.05989E-01  1.31615E+01    60     8  6.05989E-01  1.31615E+01
    61     8  6.05989E-01  1.31615E+01    62     8  6.05989E-01  1.31615E+01
    63     8  6.05989E-01  1.31615E+01    64     8  6.05989E-01  1.31615E+01
    65     6 -5.76155E-01  9.48601E+00    66     6 -5.76155E-01  9.48601E+00
    67     6 -5.76155E-01  9.48601E+00    68     6 -5.76155E-01  9.48601E+00
    69     6 -5.76155E-01  9.48601E+00    70     6 -5.76155E-01  9.48601E+00
    71     6 -5.76155E-01  9.48601E+00    72     6 -5.76155E-01  9.48601E+00
    73     6 -5.76155E-01  9.48601E+00    74     6 -5.76155E-01  9.48601E+00
    75     6 -5.76155E-01  9.48601E+00    76     6 -5.76155E-01  9.48601E+00
    77     6 -5.76155E-01  9.48601E+00    78     6 -5.76155E-01  9.48601E+00
    79     6 -5.76155E-01  9.48601E+00    80     6 -5.76155E-01  9.48601E+00
    81     6 -5.75680E-02  1.04244E+01    82     6 -5.75680E-02  1.04244E+01
    83     6 -5.75680E-02  1.04244E+01    84     6 -5.75680E-02  1.04244E+01
    85     6 -5.75680E-02  1.04244E+01    86     6 -5.75680E-02  1.04244E+01
    87     6 -5.75680E-02  1.04244E+01    88     6 -5.75680E-02  1.04244E+01
    89     6 -5.75680E-02  1.04244E+01    90     6 -5.75680E-02  1.04244E+01
    91     6 -5.75680E-02  1.04244E+01    92     6 -5.75680E-02  1.04244E+01
    93     6 -5.75680E-02  1.04244E+01    94     6 -5.75680E-02  1.04244E+01
    95     6 -5.75680E-02  1.04244E+01    96     6 -5.75680E-02  1.04244E+01
    97     6 -1.67223E-02  1.13414E+01    98     6 -1.67223E-02  1.13414E+01
    99     6 -1.67223E-02  1.13414E+01   100     6 -1.67223E-02  1.13414E+01
   101     6 -1.67223E-02  1.13414E+01   102     6 -1.67223E-02  1.13414E+01
   103     6 -1.67223E-02  1.13414E+01   104     6 -1.67223E-02  1.13414E+01
   105     6 -1.67223E-02  1.13414E+01   106     6 -1.67223E-02  1.13414E+01
   107     6 -1.67223E-02  1.13414E+01   108     6 -1.67223E-02  1.13414E+01
   109     6 -1.67223E-02  1.13414E+01   110     6 -1.67223E-02  1.13414E+01
   111     6 -1.67223E-02  1.13414E+01   112     6 -1.67223E-02  1.13414E+01
   113     1 -4.87414E-02  1.68545E+00   114     1 -4.87414E-02  1.68545E+00
   115     1 -4.87414E-02  1.68545E+00   116     1 -4.87414E-02  1.68545E+00
   117     1 -4.87414E-02  1.68545E+00   118     1 -4.87414E-02  1.68545E+00
   119     1 -4.87414E-02  1.68545E+00   120     1 -4.87414E-02  1.68545E+00
   121     1 -4.87414E-02  1.68545E+00   122     1 -4.87414E-02  1.68545E+00
   123     1 -4.87414E-02  1.68545E+00   124     1 -4.87414E-02  1.68545E+00
   125     1 -4.87414E-02  1.68545E+00   126     1 -4.87414E-02  1.68545E+00
   127     1 -4.87414E-02  1.68545E+00   128     1 -4.87414E-02  1.68545E+00

 3D3D3D3D3D3D3D3D3D3D3D3D3D3D3D3D3D3D3D3D3D3D3D3D3D3D3D3D3D3D3D3D3D3D3D3D3D3D3D
 3D DENSITY, GRID IS 100*100*100
 TTTTTTTTTTTTTTTTTTTTTTTTTTTTTT POT3        TELAPSE      454.60 TCPU      454.37
 ENDPROP   
 TTTTTTTTTTTTTTTTTTTTTTTTTTTTTT END         TELAPSE      454.60 TCPU      454.37
 EEEEEEEEEE TERMINATION  DATE 18 07 2025 TIME 12:08:14.5
NODE    0 CPU TIME =       454.374
NODE    1 CPU TIME =       452.780
NODE    2 CPU TIME =       452.295
NODE    3 CPU TIME =       452.630
NODE    4 CPU TIME =       452.726
NODE    5 CPU TIME =       452.733
NODE    6 CPU TIME =       452.774
NODE    7 CPU TIME =       452.580
NODE    8 CPU TIME =       452.595
NODE    9 CPU TIME =       452.250
NODE   10 CPU TIME =       452.525
NODE   11 CPU TIME =       452.684
NODE   12 CPU TIME =       452.704
NODE   13 CPU TIME =       452.259
NODE   14 CPU TIME =       452.519
NODE   15 CPU TIME =       452.555
    TOTAL CPU TIME =      7242.984
Fri 18 Jul 2025 12:08:14 PM CEST
total 483332
-rw-r--r-- 1 daga users 13177241 Jul 18 12:04 DENS_CUBE.DAT
-rw-r--r-- 1 daga users        0 Jul 18 12:00 fort.10.pe00
-rw-r--r-- 1 daga users        0 Jul 18 12:00 fort.10.pe01
-rw-r--r-- 1 daga users        0 Jul 18 12:00 fort.10.pe02
-rw-r--r-- 1 daga users        0 Jul 18 12:00 fort.10.pe03
-rw-r--r-- 1 daga users        0 Jul 18 12:00 fort.10.pe04
-rw-r--r-- 1 daga users        0 Jul 18 12:00 fort.10.pe05
-rw-r--r-- 1 daga users        0 Jul 18 12:00 fort.10.pe06
-rw-r--r-- 1 daga users        0 Jul 18 12:00 fort.10.pe07
-rw-r--r-- 1 daga users  4257864 Jul 18 12:00 fort.11.pe00
-rw-r--r-- 1 daga users  4257864 Jul 18 12:00 fort.11.pe01
-rw-r--r-- 1 daga users  4257864 Jul 18 12:00 fort.11.pe02
-rw-r--r-- 1 daga users  4257864 Jul 18 12:00 fort.11.pe03
-rw-r--r-- 1 daga users  4257864 Jul 18 12:00 fort.11.pe04
-rw-r--r-- 1 daga users  4257864 Jul 18 12:00 fort.11.pe05
-rw-r--r-- 1 daga users  4257864 Jul 18 12:00 fort.11.pe06
-rw-r--r-- 1 daga users  4257864 Jul 18 12:00 fort.11.pe07
-rw-r--r-- 1 daga users 44360840 Jul 18 12:00 fort.13.pe00
-rw-r--r-- 1 daga users 44360840 Jul 18 12:00 fort.13.pe01
-rw-r--r-- 1 daga users 44360840 Jul 18 12:00 fort.13.pe02
-rw-r--r-- 1 daga users 44360840 Jul 18 12:00 fort.13.pe03
-rw-r--r-- 1 daga users 44360840 Jul 18 12:00 fort.13.pe04
-rw-r--r-- 1 daga users 44360840 Jul 18 12:00 fort.13.pe05
-rw-r--r-- 1 daga users 44360840 Jul 18 12:00 fort.13.pe06
-rw-r--r-- 1 daga users 44360840 Jul 18 12:00 fort.13.pe07
-rw-r--r-- 1 daga users        0 Jul 18 12:00 fort.15.pe00
-rw-r--r-- 1 daga users        0 Jul 18 12:00 fort.15.pe01
-rw-r--r-- 1 daga users        0 Jul 18 12:00 fort.15.pe02
-rw-r--r-- 1 daga users        0 Jul 18 12:00 fort.15.pe03
-rw-r--r-- 1 daga users        0 Jul 18 12:00 fort.15.pe04
-rw-r--r-- 1 daga users        0 Jul 18 12:00 fort.15.pe05
-rw-r--r-- 1 daga users        0 Jul 18 12:00 fort.15.pe06
-rw-r--r-- 1 daga users        0 Jul 18 12:00 fort.15.pe07
-rw-r--r-- 1 daga users        0 Jul 18 12:00 fort.26.pe00
-rw-r--r-- 1 daga users        0 Jul 18 12:00 fort.26.pe01
-rw-r--r-- 1 daga users        0 Jul 18 12:00 fort.26.pe02
-rw-r--r-- 1 daga users        0 Jul 18 12:00 fort.26.pe03
-rw-r--r-- 1 daga users        0 Jul 18 12:00 fort.26.pe04
-rw-r--r-- 1 daga users        0 Jul 18 12:00 fort.26.pe05
-rw-r--r-- 1 daga users        0 Jul 18 12:00 fort.26.pe06
-rw-r--r-- 1 daga users        0 Jul 18 12:00 fort.26.pe07
-rw-r--r-- 1 daga users 20200210 Jul 18 12:08 fort.31
-rw-r--r-- 1 daga users  4257864 Jul 18 12:00 fort.3.pe00
-rw-r--r-- 1 daga users  4257864 Jul 18 12:00 fort.3.pe01
-rw-r--r-- 1 daga users  4257864 Jul 18 12:00 fort.3.pe02
-rw-r--r-- 1 daga users  4257864 Jul 18 12:00 fort.3.pe03
-rw-r--r-- 1 daga users  4257864 Jul 18 12:00 fort.3.pe04
-rw-r--r-- 1 daga users  4257864 Jul 18 12:00 fort.3.pe05
-rw-r--r-- 1 daga users  4257864 Jul 18 12:00 fort.3.pe06
-rw-r--r-- 1 daga users  4257864 Jul 18 12:00 fort.3.pe07
-rw-r--r-- 1 daga users        0 Jul 18 12:00 fort.61.pe00
-rw-r--r-- 1 daga users        0 Jul 18 12:00 fort.61.pe01
-rw-r--r-- 1 daga users        0 Jul 18 12:00 fort.61.pe02
-rw-r--r-- 1 daga users        0 Jul 18 12:00 fort.61.pe03
-rw-r--r-- 1 daga users        0 Jul 18 12:00 fort.61.pe04
-rw-r--r-- 1 daga users        0 Jul 18 12:00 fort.61.pe05
-rw-r--r-- 1 daga users        0 Jul 18 12:00 fort.61.pe06
-rw-r--r-- 1 daga users        0 Jul 18 12:00 fort.61.pe07
-rw-r--r-- 1 daga users        0 Jul 18 12:00 fort.62.pe00
-rw-r--r-- 1 daga users        0 Jul 18 12:00 fort.62.pe01
-rw-r--r-- 1 daga users        0 Jul 18 12:00 fort.62.pe02
-rw-r--r-- 1 daga users        0 Jul 18 12:00 fort.62.pe03
-rw-r--r-- 1 daga users        0 Jul 18 12:00 fort.62.pe04
-rw-r--r-- 1 daga users        0 Jul 18 12:00 fort.62.pe05
-rw-r--r-- 1 daga users        0 Jul 18 12:00 fort.62.pe06
-rw-r--r-- 1 daga users        0 Jul 18 12:00 fort.62.pe07
-rw-r--r-- 1 daga users        0 Jul 18 12:00 fort.8.pe00
-rw-r--r-- 1 daga users        0 Jul 18 12:00 fort.8.pe01
-rw-r--r-- 1 daga users        0 Jul 18 12:00 fort.8.pe02
-rw-r--r-- 1 daga users        0 Jul 18 12:00 fort.8.pe03
-rw-r--r-- 1 daga users        0 Jul 18 12:00 fort.8.pe04
-rw-r--r-- 1 daga users        0 Jul 18 12:00 fort.8.pe05
-rw-r--r-- 1 daga users        0 Jul 18 12:00 fort.8.pe06
-rw-r--r-- 1 daga users        0 Jul 18 12:00 fort.8.pe07
-rw-r--r-- 1 daga users 13184652 Jul 18 12:00 fort.9
-rw-r--r-- 1 daga users       24 Jul 18 12:00 INPUT
-rw-r--r-- 1 daga users 13177236 Jul 18 12:08 POT_CUBE.DAT
-rwxr-xr-x 1 daga users 12108056 Jul 18 12:00 Pproperties-570234
