
         
 *******************************************************************************
 *                                                                             *
 *                               CRYSTAL14                                     *
 *                      public : 1.0.1 - Dec 11th, 2013                        *
 *                       HTTP://WWW.CRYSTAL.UNITO.IT                           *
 *                                                                             *
 *                              MAIN AUTHORS                                   *
 *                                                                             *
 *  R. DOVESI(1,11), V.R. SAUNDERS(2), C. ROETTI(1,11), R. ORLANDO(1,11),      *
 *  C.M. ZICOVICH-WILSON(1,3), F. PASCALE(4), B. CIVALLERI(1,11),              *
 *  K. DOLL(5), N.M. HARRISON(2,6), I. J. BUSH(7), Ph. D'ARCO(8),              *
 *  M. LLUNELL(9), M. CAUSA'(10), Y. NOEL(8)                                   *
 *                                                                             *
 *        CONTRIBUTIONS TO THE CURRENT RELEASE HAVE BEEN GIVEN BY              *
 *                                                                             *
 *  L. MASCHIO(1,11), S. CASASSA(1,11), A. ERBA(1,11), M. FERRABONE(1,11),     *
 *  M. DE LA PIERRE(1,11), M. FERRERO(1,11), V. LACIVITA(1,11),                *
 *  J. BAIMA(1,11), E. ALBANESE(1,11), M.F. PEINTINGER(12), R. BAST(13),       *
 *  M. RERAT(14), B. KIRTMAN(15), R. DEMICHELIS(1,16)                          *
 *                                                                             *
 * (1) THEORETICAL CHEMISTRY GROUP - UNIVERSITA' DI TORINO - TORINO (ITALY)    *
 *     http://www.crystal.unito.it                                             *
 * (2) COMPUTATIONAL SCIENCE & ENGINEERING DEPARTMENT - STFC DARESBURY (UK)    *
 *     http://www.stfc.ac.uk/CSE/randd/cmg/CRYSTAL/25806.aspx                  *
 * (3) UNIVERSIDAD AUTONOMA DEL ESTADO DE MORELOS - CUERNAVACA (MEXICO)        *
 * (4) UNIVERSITE' DE LORRAINE - NANCY (FRANCE)                                *
 * (5) UNIVERSITAET ULM - ULM (GERMANY); (6) IMPERIAL COLLEGE - LONDON (UK)    *
 * (7) NAG - OXFORD (UK); (8) UPMC - SORBONNE UNIVERSITES - PARIS (FRANCE)     *
 * (9) UNIVERSIDAD DE BARCELONA - BARCELONA (SPAIN)                            *
 *(10) UNIVERSITA' DI NAPOLI "FEDERICO II" - NAPOLI (ITALY)                    *
 *(11) NIS - NANOSTRUCTURED INTERFACES AND SURFACES - TORINO (ITALY)           *
 *(12) MPI FUER CHEMISCHE ENERGIEKONVERSION - MUELHEIM AN DER RUHR (GERMANY)   *
 *(13) UNIVERSITY OF STOCKHOLM - STOCKHOLM (SWEDEN)                            *
 *(14) UNIVERSITE' DE PAU ET DES PAYS DE L'ADOUR - PAU (FRANCE)                *
 *(15) UNIVERSITY OF CALIFORNIA SANTA BARBARA - SANTA BARBARA (USA)            *
 *(16) CURTIN UNIVERSITY - PERTH (AUSTRALIA)                                   *
 *                                                                             *
 ********************************************************************************
 EEEEEEEEEE STARTING  DATE 03 09 2025 TIME 18:24:42.6
 TEST12 - UREA BULK BASE 6-21 + POLARIZATION                                     

 CRYSTAL CALCULATION
 (INPUT ACCORDING TO THE INTERNATIONAL TABLES FOR X-RAY CRYSTALLOGRAPHY)
 CRYSTAL FAMILY                       :  TETRAGONAL  
 CRYSTAL CLASS  (GROTH - 1921)        :  TETRAGONAL SCALENOHEDRAL             

 SPACE GROUP (NONCENTROSYMMETRIC)     :  P -4 21 M       

 LATTICE PARAMETERS  (ANGSTROMS AND DEGREES) - CONVENTIONAL CELL
        A           B           C        ALPHA        BETA       GAMMA
     5.56500     5.56500     4.68400    90.00000    90.00000    90.00000


 NUMBER OF IRREDUCIBLE ATOMS IN THE CONVENTIONAL CELL:    5

 INPUT COORDINATES

 ATOM AT. N.              COORDINATES
   1   6     0.000000000000E+00  5.000000000000E-01  3.260000000000E-01
   2   8     0.000000000000E+00  5.000000000000E-01  5.953000000000E-01
   3   7     1.459000000000E-01  6.459000000000E-01  1.766000000000E-01
   4   1     2.575000000000E-01  7.575000000000E-01  2.827000000000E-01
   5   1     1.441000000000E-01  6.441000000000E-01 -3.800000000000E-02

 *******************************************************************************

 << INFORMATION >>: FROM NOW ON, ALL COORDINATES REFER TO THE PRIMITIVE CELL

 *******************************************************************************

 LATTICE PARAMETERS  (ANGSTROMS AND DEGREES) - PRIMITIVE CELL
       A          B          C         ALPHA     BETA     GAMMA        VOLUME
    5.56500    5.56500    4.68400    90.00000  90.00000  90.00000    145.059850

 COORDINATES OF THE EQUIVALENT ATOMS (FRACTIONAL UNITS)

 N. ATOM EQUIV AT. N.          X                  Y                  Z

   1   1   1    6 C     0.00000000000E+00 -5.00000000000E-01  3.26000000000E-01
   2   1   2    6 C    -5.00000000000E-01  0.00000000000E+00 -3.26000000000E-01

   3   2   1    8 O     0.00000000000E+00 -5.00000000000E-01 -4.04700000000E-01
   4   2   2    8 O    -5.00000000000E-01  0.00000000000E+00  4.04700000000E-01

   5   3   1    7 N     1.45900000000E-01 -3.54100000000E-01  1.76600000000E-01
   6   3   2    7 N    -1.45900000000E-01  3.54100000000E-01  1.76600000000E-01
   7   3   3    7 N    -3.54100000000E-01 -1.45900000000E-01 -1.76600000000E-01
   8   3   4    7 N     3.54100000000E-01  1.45900000000E-01 -1.76600000000E-01

   9   4   1    1 H     2.57500000000E-01 -2.42500000000E-01  2.82700000000E-01
  10   4   2    1 H    -2.57500000000E-01  2.42500000000E-01  2.82700000000E-01
  11   4   3    1 H    -2.42500000000E-01 -2.57500000000E-01 -2.82700000000E-01
  12   4   4    1 H     2.42500000000E-01  2.57500000000E-01 -2.82700000000E-01

  13   5   1    1 H     1.44100000000E-01 -3.55900000000E-01 -3.80000000000E-02
  14   5   2    1 H    -1.44100000000E-01  3.55900000000E-01 -3.80000000000E-02
  15   5   3    1 H    -3.55900000000E-01 -1.44100000000E-01  3.80000000000E-02
  16   5   4    1 H     3.55900000000E-01  1.44100000000E-01  3.80000000000E-02

 NUMBER OF SYMMETRY OPERATORS         :    8
 *******************************************************************************
 * GEOMETRY EDITING - INPUT COORDINATES ARE GIVEN IN ANGSTROM         
 *******************************************************************************

 GEOMETRY NOW FULLY CONSISTENT WITH THE GROUP

 COORDINATES IN ANGSTROM

 GCALCO - MAX INDICES DIRECT LATTICE VECTOR    14    14    16
 NO.OF VECTORS CREATED 6999 STARS  525 RMAX    62.34386 BOHR


 *******************************************************************************
 *  SEARCHING THE MOLECULES OF THE CRYSTAL
 *******************************************************************************

 MOLECULAR FRAGMENT N.    1
 REFERENCE ATOM:    1 IN CELL  0 0 0  COORDINATES    0.000  -2.783   1.527
 FRAGMENT COMPOSITION:
  SEQ.  NO. 
  NEW   OLD    CELL   AT. NO.             COORD.(A)
   1     1    0  0  0    6       0.0000   -2.7825    1.5270
   2     3    0  0  1    8       0.0000   -2.7825    2.7884
   3     5    0  0  0    7       0.8119   -1.9706    0.8272
   4     6    0 -1  0    7      -0.8119   -3.5944    0.8272
   5    13    0  0  0    1       0.8019   -1.9806   -0.1780
   6     9    0  0  0    1       1.4330   -1.3495    1.3242
   7    14    0 -1  0    1      -0.8019   -3.5844   -0.1780
   8    10    0 -1  0    1      -1.4330   -4.2155    1.3242

 MOLECULAR FRAGMENT N.    2
 REFERENCE ATOM:    2 IN CELL  0 0 0  COORDINATES   -2.783   0.000  -1.527
 FRAGMENT COMPOSITION:
  SEQ.  NO. 
  NEW   OLD    CELL   AT. NO.             COORD.(A)
   9     2    0  0  0    6      -2.7825    0.0000   -1.5270
  10     4    0  0 -1    8      -2.7825    0.0000   -2.7884
  11     7    0  0  0    7      -1.9706   -0.8119   -0.8272
  12     8   -1  0  0    7      -3.5944    0.8119   -0.8272
  13    15    0  0  0    1      -1.9806   -0.8019    0.1780
  14    11    0  0  0    1      -1.3495   -1.4330   -1.3242
  15    16   -1  0  0    1      -3.5844    0.8019    0.1780
  16    12   -1  0  0    1      -4.2155    1.4330   -1.3242

 *******************************************************************************


 GCALCO - MAX INDICES DIRECT LATTICE VECTOR    14    14    16
 NO.OF VECTORS CREATED 6999 STARS  525 RMAX   117.81283 BOHR

 GEOMETRY FOR WAVE FUNCTION - DIMENSIONALITY OF THE SYSTEM    3
 (NON PERIODIC DIRECTION: LATTICE PARAMETER FORMALLY SET TO 500)
 *******************************************************************************
 LATTICE PARAMETERS (ANGSTROMS AND DEGREES) - BOHR = 0.5291772083 ANGSTROM
 PRIMITIVE CELL - CENTRING CODE 1/0 VOLUME=   145.059850 - DENSITY  1.374 g/cm^3
         A              B              C           ALPHA      BETA       GAMMA 
     5.56500000     5.56500000     4.68400000    90.000000  90.000000  90.000000
 *******************************************************************************
 ATOMS IN THE ASYMMETRIC UNIT    5 - ATOMS IN THE UNIT CELL:   16
     ATOM              X/A                 Y/B                 Z/C    
 *******************************************************************************
   1 T   6 C     0.000000000000E+00  5.000000000000E-01  3.260000000000E-01
   2 T   8 O     0.000000000000E+00  5.000000000000E-01 -4.047000000000E-01
   3 T   7 N     1.459000000000E-01 -3.541000000000E-01  1.766000000000E-01
   4 F   7 N    -1.459000000000E-01  3.541000000000E-01  1.766000000000E-01
   5 T   1 H     1.441000000000E-01 -3.559000000000E-01 -3.800000000000E-02
   6 T   1 H     2.575000000000E-01 -2.425000000000E-01  2.827000000000E-01
   7 F   1 H    -1.441000000000E-01  3.559000000000E-01 -3.800000000000E-02
   8 F   1 H    -2.575000000000E-01  2.425000000000E-01  2.827000000000E-01
   9 F   6 C    -5.000000000000E-01  0.000000000000E+00 -3.260000000000E-01
  10 F   8 O    -5.000000000000E-01  0.000000000000E+00  4.047000000000E-01
  11 F   7 N    -3.541000000000E-01 -1.459000000000E-01 -1.766000000000E-01
  12 F   7 N     3.541000000000E-01  1.459000000000E-01 -1.766000000000E-01
  13 F   1 H    -3.559000000000E-01 -1.441000000000E-01  3.800000000000E-02
  14 F   1 H    -2.425000000000E-01 -2.575000000000E-01 -2.827000000000E-01
  15 F   1 H     3.559000000000E-01  1.441000000000E-01  3.800000000000E-02
  16 F   1 H     2.425000000000E-01  2.575000000000E-01 -2.827000000000E-01

 T = ATOM BELONGING TO THE ASYMMETRIC UNIT

 ****    8 SYMMOPS - TRANSLATORS IN FRACTIONAL UNITS
 **** MATRICES AND TRANSLATORS IN THE CRYSTALLOGRAPHIC REFERENCE FRAME
   V INV                    ROTATION MATRICES                   TRANSLATORS
   1   1  1.00  0.00  0.00  0.00  1.00  0.00  0.00  0.00  1.00  0.00  0.00  0.00
   2   2 -1.00  0.00  0.00  0.00 -1.00  0.00  0.00  0.00  1.00  0.00  0.00  0.00
   3   3  1.00  0.00  0.00  0.00 -1.00  0.00  0.00  0.00 -1.00  0.50  0.50  0.00
   4   4 -1.00  0.00  0.00  0.00  1.00  0.00  0.00  0.00 -1.00  0.50  0.50  0.00
   5   5  0.00  1.00  0.00  1.00  0.00  0.00  0.00  0.00  1.00  0.50  0.50  0.00
   6   6  0.00 -1.00  0.00 -1.00  0.00  0.00  0.00  0.00  1.00  0.50  0.50  0.00
   7   8  0.00 -1.00  0.00  1.00  0.00  0.00  0.00  0.00 -1.00  0.00  0.00  0.00
   8   7  0.00  1.00  0.00 -1.00  0.00  0.00  0.00  0.00 -1.00  0.00  0.00  0.00

 DIRECT LATTICE VECTORS CARTESIAN COMPONENTS (ANGSTROM)
          X                    Y                    Z
   0.556500000000E+01   0.000000000000E+00   0.000000000000E+00
   0.000000000000E+00   0.556500000000E+01   0.000000000000E+00
   0.000000000000E+00   0.000000000000E+00   0.468400000000E+01


 CARTESIAN COORDINATES - PRIMITIVE CELL
 *******************************************************************************
 *      ATOM          X(ANGSTROM)         Y(ANGSTROM)         Z(ANGSTROM)
 *******************************************************************************
    1     6 C     0.000000000000E+00  2.782500000000E+00  1.526984000000E+00
    2     8 O     0.000000000000E+00  2.782500000000E+00  2.788385200000E+00
    3     7 N     8.119335000000E-01 -1.970566500000E+00  8.271944000000E-01
    4     7 N    -8.119335000000E-01 -3.594433500000E+00  8.271944000000E-01
    5     1 H     8.019165000000E-01 -1.980583500000E+00 -1.779920000000E-01
    6     1 H     1.432987500000E+00 -1.349512500000E+00  1.324166800000E+00
    7     1 H    -8.019165000000E-01 -3.584416500000E+00 -1.779920000000E-01
    8     1 H    -1.432987500000E+00 -4.215487500000E+00  1.324166800000E+00
    9     6 C     2.782500000000E+00  0.000000000000E+00 -1.526984000000E+00
   10     8 O     2.782500000000E+00  0.000000000000E+00 -2.788385200000E+00
   11     7 N    -1.970566500000E+00 -8.119335000000E-01 -8.271944000000E-01
   12     7 N    -3.594433500000E+00  8.119335000000E-01 -8.271944000000E-01
   13     1 H    -1.980583500000E+00 -8.019165000000E-01  1.779920000000E-01
   14     1 H    -1.349512500000E+00 -1.432987500000E+00 -1.324166800000E+00
   15     1 H    -3.584416500000E+00  8.019165000000E-01  1.779920000000E-01
   16     1 H    -4.215487500000E+00  1.432987500000E+00 -1.324166800000E+00

 *******************************************************************************
 LOCAL ATOMIC FUNCTIONS BASIS SET
 *******************************************************************************
   ATOM   X(AU)   Y(AU)   Z(AU)  N. TYPE  EXPONENT  S COEF   P COEF   D/F/G COEF
 *******************************************************************************
   1 C    0.000   5.258   2.886
                                  1 S  
                                         3.048E+03 1.826E-03 0.000E+00 0.000E+00
                                         4.564E+02 1.406E-02 0.000E+00 0.000E+00
                                         1.037E+02 6.876E-02 0.000E+00 0.000E+00
                                         2.923E+01 2.304E-01 0.000E+00 0.000E+00
                                         9.349E+00 4.685E-01 0.000E+00 0.000E+00
                                         3.189E+00 3.628E-01 0.000E+00 0.000E+00
                             2-   5 SP 
                                         3.665E+00-3.959E-01 2.365E-01 0.000E+00
                                         7.705E-01 1.216E+00 8.606E-01 0.000E+00
                             6-   9 SP 
                                         1.959E-01 1.000E+00 1.000E+00 0.000E+00
                            10-  14 D  
                                         8.000E-01 0.000E+00 0.000E+00 1.000E+00
   2 O    0.000   5.258   5.269
                                 15 S  
                                         5.472E+03 1.832E-03 0.000E+00 0.000E+00
                                         8.178E+02 1.410E-02 0.000E+00 0.000E+00
                                         1.864E+02 6.863E-02 0.000E+00 0.000E+00
                                         5.302E+01 2.294E-01 0.000E+00 0.000E+00
                                         1.718E+01 4.664E-01 0.000E+00 0.000E+00
                                         5.912E+00 3.642E-01 0.000E+00 0.000E+00
                            16-  19 SP 
                                         7.403E+00-4.045E-01 2.446E-01 0.000E+00
                                         1.576E+00 1.222E+00 8.540E-01 0.000E+00
                            20-  23 SP 
                                         3.737E-01 1.000E+00 1.000E+00 0.000E+00
                            24-  28 D  
                                         8.000E-01 0.000E+00 0.000E+00 1.000E+00
   3 N    1.534  -3.724   1.563
                                 29 S  
                                         4.150E+03 1.845E-03 0.000E+00 0.000E+00
                                         6.201E+02 1.416E-02 0.000E+00 0.000E+00
                                         1.417E+02 6.863E-02 0.000E+00 0.000E+00
                                         4.034E+01 2.286E-01 0.000E+00 0.000E+00
                                         1.303E+01 4.662E-01 0.000E+00 0.000E+00
                                         4.470E+00 3.657E-01 0.000E+00 0.000E+00
                            30-  33 SP 
                                         5.425E+00-4.133E-01 2.380E-01 0.000E+00
                                         1.149E+00 1.224E+00 8.590E-01 0.000E+00
                            34-  37 SP 
                                         2.832E-01 1.000E+00 1.000E+00 0.000E+00
                            38-  42 D  
                                         8.000E-01 0.000E+00 0.000E+00 1.000E+00
   4 N   -1.534  -6.792   1.563
   5 H    1.515  -3.743  -0.336
                                 57 S  
                                         5.447E+00 1.563E-01 0.000E+00 0.000E+00
                                         8.245E-01 9.047E-01 0.000E+00 0.000E+00
                                 58 S  
                                         1.832E-01 1.000E+00 0.000E+00 0.000E+00
                            59-  61 P  
                                         1.100E+00 0.000E+00 1.000E+00 0.000E+00
   6 H    2.708  -2.550   2.502
   7 H   -1.515  -6.774  -0.336
   8 H   -2.708  -7.966   2.502
   9 C    5.258   0.000  -2.886
  10 O    5.258   0.000  -5.269
  11 N   -3.724  -1.534  -1.563
  12 N   -6.792   1.534  -1.563
  13 H   -3.743  -1.515   0.336
  14 H   -2.550  -2.708  -2.502
  15 H   -6.774   1.515   0.336
  16 H   -7.966   2.708  -2.502
 INFORMATION **** SET_MPP **** PCRYSTAL CALCULATION
 INFORMATION **** READM2 **** NEW DEFAULT: FOCK/KS MATRIX MIXING SET TO 30 %
 INFORMATION **** READM2 **** NEW DEFAULT: FULL DIRECT SCF MODE
 INFORMATION **** READM2 **** NEW DEFAULT: COULOMB BIPOLAR BUFFER SET TO 32 Mb
 INFORMATION **** READM2 **** NEW DEFAULT: EXCHANGE BIPOLAR BUFFER SET TO 32 Mb
 INFORMATION **** PPAN ****  MULLIKEN POPULATION ANALYSIS AT THE END OF SCF
 *******************************************************************************
 N. OF ATOMS PER CELL        16  COULOMB OVERLAP TOL         (T1) 10**   -6
 NUMBER OF SHELLS            56  COULOMB PENETRATION TOL     (T2) 10**   -6
 NUMBER OF AO               152  EXCHANGE OVERLAP TOL        (T3) 10**   -6
 N. OF ELECTRONS PER CELL    64  EXCHANGE PSEUDO OVP (F(G))  (T4) 10**   -6
 CORE ELECTRONS PER CELL     16  EXCHANGE PSEUDO OVP (P(G))  (T5) 10**  -12
 N. OF SYMMETRY OPERATORS     8  POLE ORDER IN MONO ZONE                  4
 *******************************************************************************
 TYPE OF CALCULATION :  RESTRICTED CLOSED SHELL
 HARTREE-FOCK HAMILTONIAN

 CAPPA:IS1  2;IS2  2;IS3  2; K PTS MONK NET   6; SYMMOPS:K SPACE  16;G SPACE   8

 *******************************************************************************
 MAX NUMBER OF SCF CYCLES      50  CONVERGENCE ON DELTAP        10**-16
 WEIGHT OF F(I) IN F(I+1)      30% CONVERGENCE ON ENERGY        10**- 6
 SHRINK. FACT.(MONKH.)    2  2  2  NUMBER OF K POINTS IN THE IBZ      6
 SHRINKING FACTOR(GILAT NET)    2  NUMBER OF K POINTS(GILAT NET)      6
 *******************************************************************************
 *** K POINTS COORDINATES (OBLIQUE COORDINATES IN UNITS OF IS =  2)
   1-R(  0  0  0)   2-R(  1  0  0)   3-R(  1  1  0)   4-R(  0  0  1)
   5-R(  1  0  1)   6-R(  1  1  1)

 DIRECT LATTICE VECTORS COMPON. (A.U.)     RECIP. LATTICE VECTORS COMPON. (A.U.) 
        X            Y            Z              X            Y            Z
   10.5163259    0.0000000    0.0000000      0.5974696    0.0000000    0.0000000
    0.0000000   10.5163259    0.0000000      0.0000000    0.5974696    0.0000000
    0.0000000    0.0000000    8.8514772      0.0000000    0.0000000    0.7098460

 DISK SPACE FOR EIGENVECTORS (FTN 10)      138624 REALS

 SYMMETRY ADAPTION OF THE BLOCH FUNCTIONS ENABLED

 MATRIX SIZE: P(G)  108364, F(G)   18098, P(G) IRR   10907, F(G) IRR    4245
 MAX G-VECTOR INDEX FOR 1- AND 2-ELECTRON INTEGRALS 113

 TTTTTTTTTTTTTTTTTTTTTTTTTTTTTT INPUT       TELAPSE        0.01 TCPU        0.01

 NEIGHBORS OF THE NON-EQUIVALENT ATOMS

 N = NUMBER OF NEIGHBORS AT DISTANCE R
    ATOM  N     R/ANG      R/AU   NEIGHBORS (ATOM LABELS AND CELL INDICES)
   1 C    1     1.2614     2.3837    2 O    0 0 0
   1 C    2     1.3447     2.5411    3 N    0 1 0    4 N    0 1 0
   1 C    2     2.0367     3.8488    6 H    0 1 0    8 H    0 1 0
   1 C    2     2.0477     3.8696    5 H    0 1 0    7 H    0 1 0
   1 C    2     2.6461     5.0004   14 H    0 1 1   16 H    1 0 1
   1 C    2     3.1089     5.8750   13 H    0 1 0   15 H    1 0 0

   2 O    1     1.2614     2.3837    1 C    0 0 0
   2 O    2     1.9922     3.7647   14 H    0 1 1   16 H    1 0 1
   2 O    2     2.0582     3.8895    5 H    0 1 1    7 H    0 1 1
   2 O    2     2.2726     4.2946    3 N    0 1 0    4 N    0 1 0
   2 O    2     2.5002     4.7246    6 H    0 1 0    8 H    0 1 0
   2 O    2     2.9550     5.5842    3 N    0 1 1    4 N    0 1 1

   3 N    1     1.0053     1.8997    5 H    0 0 0
   3 N    1     1.0092     1.9070    6 H    0 0 0
   3 N    1     1.3447     2.5411    1 C    0-1 0
   3 N    1     2.2726     4.2946    2 O    0-1 0
   3 N    1     2.2965     4.3397    4 N    0 0 0
   3 N    1     2.4939     4.7127    7 H    0 0 0

   5 H    1     1.0053     1.8997    3 N    0 0 0
   5 H    1     1.7473     3.3019    6 H    0 0 0
   5 H    1     2.0477     3.8696    1 C    0-1 0
   5 H    1     2.0582     3.8895    2 O    0-1-1
   5 H    1     2.2682     4.2862    7 H    0 0 0
   5 H    1     2.4939     4.7127    4 N    0 0 0

   6 H    1     1.0092     1.9070    3 N    0 0 0
   6 H    1     1.7473     3.3019    5 H    0 0 0
   6 H    1     1.9922     3.7647   10 O    0 0 1
   6 H    1     2.0367     3.8488    1 C    0-1 0
   6 H    2     2.4984     4.7214   13 H    1 0 0   15 H    1 0 0
   6 H    1     2.5002     4.7246    2 O    0-1 0


 SYMMETRY ALLOWED INTERNAL DEGREE(S) OF FREEDOM:   8
 TTTTTTTTTTTTTTTTTTTTTTTTTTTTTT SYMM        TELAPSE        0.02 TCPU        0.01
 TTTTTTTTTTTTTTTTTTTTTTTTTTTTTT INT_SCREEN  TELAPSE        0.02 TCPU        0.02
 INFORMATION **** EXCBUF **** EXCH. BIPO BUFFER: WORDS USED =      308997
 TTTTTTTTTTTTTTTTTTTTTTTTTTTTTT INT_CALC    TELAPSE        0.06 TCPU        0.05
 EEEEEEEEEE INT_CALC TERMINATION  DATE 03 09 2025 TIME 18:24:42.7

 *******************************************************************************
 TEST12 - UREA BULK BASE 6-21 + POLARIZATION                                     
 CRYSTAL - SCF - TYPE OF CALCULATION :  RESTRICTED CLOSED SHELL
 *******************************************************************************

 CAPPA:IS1  2;IS2  2;IS3  2; K PTS MONK NET   6; SYMMOPS:K SPACE  16;G SPACE   8

 TTTTTTTTTTTTTTTTTTTTTTTTTTTTTT SDIK        TELAPSE        0.10 TCPU        0.06

 AAAAAAAAAAAAAAAAAAAAAAAAAAAAAAAAAAAAAAAAAAAAAAAAAAAAAAAAAAAAAAAAAAAAAAAAAAAAAAA
         ATOMIC WAVEFUNCTION(S)


 NUCLEAR CHARGE  6.0  SYMMETRY SPECIES            S    P
 N. ELECTRONS    6.0  NUMBER OF PRIMITIVE GTOS    9    3
                      NUMBER OF CONTRACTED GTOS   3    2
                      NUMBER OF CLOSED SHELLS     2    0
                      OPEN SHELL OCCUPATION       0    2

  ZNUC SCFIT  TOTAL HF ENERGY   KINETIC ENERGY   VIRIAL THEOREM ACCURACY
   6.0   9   -3.765831823E+01  3.765320062E+01 -2.000135914E+00  1.5E-06

 NUCLEAR CHARGE  8.0  SYMMETRY SPECIES            S    P
 N. ELECTRONS    8.0  NUMBER OF PRIMITIVE GTOS    9    3
                      NUMBER OF CONTRACTED GTOS   3    2
                      NUMBER OF CLOSED SHELLS     2    0
                      OPEN SHELL OCCUPATION       0    4

  ZNUC SCFIT  TOTAL HF ENERGY   KINETIC ENERGY   VIRIAL THEOREM ACCURACY
   8.0  10   -7.469910437E+01  7.469021188E+01 -2.000119058E+00  4.4E-06

 NUCLEAR CHARGE  7.0  SYMMETRY SPECIES            S    P
 N. ELECTRONS    7.0  NUMBER OF PRIMITIVE GTOS    9    3
                      NUMBER OF CONTRACTED GTOS   3    2
                      NUMBER OF CLOSED SHELLS     2    0
                      OPEN SHELL OCCUPATION       0    3

  ZNUC SCFIT  TOTAL HF ENERGY   KINETIC ENERGY   VIRIAL THEOREM ACCURACY
   7.0   8   -5.434075198E+01  5.432977783E+01 -2.000201992E+00  3.0E-06

 NUCLEAR CHARGE  1.0  SYMMETRY SPECIES            S
 N. ELECTRONS    1.0  NUMBER OF PRIMITIVE GTOS    3
                      NUMBER OF CONTRACTED GTOS   2
                      NUMBER OF CLOSED SHELLS     0
                      OPEN SHELL OCCUPATION       1

  ZNUC SCFIT  TOTAL HF ENERGY   KINETIC ENERGY   VIRIAL THEOREM ACCURACY
   1.0   1   -4.961986360E-01  5.144743151E-01 -1.964476984E+00  0.0E+00

 AAAAAAAAAAAAAAAAAAAAAAAAAAAAAAAAAAAAAAAAAAAAAAAAAAAAAAAAAAAAAAAAAAAAAAAAAAAAAAA

 CHARGE NORMALIZATION FACTOR   1.00000000
 TOTAL ATOMIC CHARGES:
   6.0000000   8.0000000   7.0000000   7.0000000   1.0000000   1.0000000
   1.0000000   1.0000000   6.0000000   8.0000000   7.0000000   7.0000000
   1.0000000   1.0000000   1.0000000   1.0000000
 TTTTTTTTTTTTTTTTTTTTTTTTTTTTTT MOQGAD      TELAPSE        0.15 TCPU        0.09
 TTTTTTTTTTTTTTTTTTTTTTTTTTTTTT SHELLX2     TELAPSE       10.36 TCPU        8.12
 TTTTTTTTTTTTTTTTTTTTTTTTTTTTTT MONMO3      TELAPSE       10.60 TCPU        8.35
 CYC   0 ETOT(AU) -4.500026138199E+02 DETOT -4.50E+02 tst  0.00E+00 PX  1.00E+00
 TTTTTTTTTTTTTTTTTTTTTTTTTTTTTT FDIK        TELAPSE       10.63 TCPU        8.38
 INSULATING STATE
 TOP OF VALENCE BANDS -    BAND     32; K    1; EIG -2.7358164E-01 AU
 BOTTOM OF VIRTUAL BANDS - BAND     33; K    1; EIG  7.9920254E-02 AU
 TTTTTTTTTTTTTTTTTTTTTTTTTTTTTT PDIG        TELAPSE       10.63 TCPU        8.38
 CHARGE NORMALIZATION FACTOR   1.00000000
 TOTAL ATOMIC CHARGES:
   4.6093562   8.9787727   7.7761433   7.7761433   0.7148294   0.7149629
   0.7148294   0.7149629   4.6093562   8.9787727   7.7761433   7.7761433
   0.7148294   0.7149629   0.7148294   0.7149629
 TTTTTTTTTTTTTTTTTTTTTTTTTTTTTT MOQGAD      TELAPSE       10.66 TCPU        8.41
 TTTTTTTTTTTTTTTTTTTTTTTTTTTTTT SHELLX2     TELAPSE       20.09 TCPU       16.82
 TTTTTTTTTTTTTTTTTTTTTTTTTTTTTT MONMO3      TELAPSE       20.32 TCPU       17.06
 CYC   1 ETOT(AU) -4.475369147872E+02 DETOT  2.47E+00 tst  0.00E+00 PX  1.00E+00
 TTTTTTTTTTTTTTTTTTTTTTTTTTTTTT FDIK        TELAPSE       20.34 TCPU       17.07
 INSULATING STATE
 TOP OF VALENCE BANDS -    BAND     32; K    1; EIG -3.5468526E-01 AU
 BOTTOM OF VIRTUAL BANDS - BAND     33; K    1; EIG  1.6990346E-01 AU
 TTTTTTTTTTTTTTTTTTTTTTTTTTTTTT PDIG        TELAPSE       20.34 TCPU       17.08
 CHARGE NORMALIZATION FACTOR   1.00000000
 TOTAL ATOMIC CHARGES:
   4.8991938   8.7249802   7.7374826   7.7374826   0.7247037   0.7257267
   0.7247037   0.7257267   4.8991938   8.7249802   7.7374826   7.7374826
   0.7247037   0.7257267   0.7247037   0.7257267
 TTTTTTTTTTTTTTTTTTTTTTTTTTTTTT MOQGAD      TELAPSE       20.37 TCPU       17.10
 TTTTTTTTTTTTTTTTTTTTTTTTTTTTTT SHELLX2     TELAPSE       29.76 TCPU       25.46
 TTTTTTTTTTTTTTTTTTTTTTTTTTTTTT MONMO3      TELAPSE       30.00 TCPU       25.70
 CYC   2 ETOT(AU) -4.476644065831E+02 DETOT -1.27E-01 tst  2.95E-03 PX  7.55E-02
 TTTTTTTTTTTTTTTTTTTTTTTTTTTTTT FDIK        TELAPSE       30.01 TCPU       25.71
 INSULATING STATE
 TOP OF VALENCE BANDS -    BAND     32; K    1; EIG -3.7366744E-01 AU
 BOTTOM OF VIRTUAL BANDS - BAND     33; K    1; EIG  1.9142926E-01 AU
 TTTTTTTTTTTTTTTTTTTTTTTTTTTTTT PDIG        TELAPSE       30.01 TCPU       25.71
 CHARGE NORMALIZATION FACTOR   1.00000000
 TOTAL ATOMIC CHARGES:
   4.8240049   8.7850215   7.7397796   7.7397796   0.7276251   0.7280820
   0.7276251   0.7280820   4.8240049   8.7850215   7.7397796   7.7397796
   0.7276251   0.7280820   0.7276251   0.7280820
 TTTTTTTTTTTTTTTTTTTTTTTTTTTTTT MOQGAD      TELAPSE       30.04 TCPU       25.74
 TTTTTTTTTTTTTTTTTTTTTTTTTTTTTT SHELLX2     TELAPSE       40.05 TCPU       34.12
 TTTTTTTTTTTTTTTTTTTTTTTTTTTTTT MONMO3      TELAPSE       40.37 TCPU       34.36
 CYC   3 ETOT(AU) -4.476779415128E+02 DETOT -1.35E-02 tst  1.66E-04 PX  2.12E-02
 TTTTTTTTTTTTTTTTTTTTTTTTTTTTTT FDIK        TELAPSE       40.39 TCPU       34.37
 INSULATING STATE
 TOP OF VALENCE BANDS -    BAND     32; K    1; EIG -3.8187645E-01 AU
 BOTTOM OF VIRTUAL BANDS - BAND     33; K    1; EIG  2.0127804E-01 AU
 TTTTTTTTTTTTTTTTTTTTTTTTTTTTTT PDIG        TELAPSE       40.40 TCPU       34.38
 CHARGE NORMALIZATION FACTOR   1.00000000
 TOTAL ATOMIC CHARGES:
   4.8171337   8.7762438   7.7469004   7.7469004   0.7279777   0.7284332
   0.7279777   0.7284332   4.8171337   8.7762438   7.7469004   7.7469004
   0.7279777   0.7284332   0.7279777   0.7284332
 TTTTTTTTTTTTTTTTTTTTTTTTTTTTTT MOQGAD      TELAPSE       40.42 TCPU       34.40
 TTTTTTTTTTTTTTTTTTTTTTTTTTTTTT SHELLX2     TELAPSE       50.27 TCPU       42.77
 TTTTTTTTTTTTTTTTTTTTTTTTTTTTTT MONMO3      TELAPSE       50.50 TCPU       42.99
 CYC   4 ETOT(AU) -4.476804587689E+02 DETOT -2.52E-03 tst  3.84E-05 PX  7.85E-03
 TTTTTTTTTTTTTTTTTTTTTTTTTTTTTT FDIK        TELAPSE       50.51 TCPU       43.01
 INSULATING STATE
 TOP OF VALENCE BANDS -    BAND     32; K    1; EIG -3.8332020E-01 AU
 BOTTOM OF VIRTUAL BANDS - BAND     33; K    1; EIG  2.0484237E-01 AU
 TTTTTTTTTTTTTTTTTTTTTTTTTTTTTT PDIG        TELAPSE       50.52 TCPU       43.02
 CHARGE NORMALIZATION FACTOR   1.00000000
 TOTAL ATOMIC CHARGES:
   4.8092896   8.7796136   7.7480757   7.7480757   0.7285142   0.7289585
   0.7285142   0.7289585   4.8092896   8.7796136   7.7480757   7.7480757
   0.7285142   0.7289585   0.7285142   0.7289585
 TTTTTTTTTTTTTTTTTTTTTTTTTTTTTT MOQGAD      TELAPSE       50.54 TCPU       43.04
 TTTTTTTTTTTTTTTTTTTTTTTTTTTTTT SHELLX2     TELAPSE       60.34 TCPU       51.41
 TTTTTTTTTTTTTTTTTTTTTTTTTTTTTT MONMO3      TELAPSE       60.60 TCPU       51.64
 CYC   5 ETOT(AU) -4.476810311843E+02 DETOT -5.72E-04 tst  8.86E-06 PX  3.76E-03
 TTTTTTTTTTTTTTTTTTTTTTTTTTTTTT FDIK        TELAPSE       60.62 TCPU       51.66
 INSULATING STATE
 TOP OF VALENCE BANDS -    BAND     32; K    1; EIG -3.8392770E-01 AU
 BOTTOM OF VIRTUAL BANDS - BAND     33; K    1; EIG  2.0634624E-01 AU
 TTTTTTTTTTTTTTTTTTTTTTTTTTTTTT PDIG        TELAPSE       60.62 TCPU       51.66
 CHARGE NORMALIZATION FACTOR   1.00000000
 TOTAL ATOMIC CHARGES:
   4.8065268   8.7796105   7.7488933   7.7488933   0.7287940   0.7292440
   0.7287940   0.7292440   4.8065268   8.7796105   7.7488933   7.7488933
   0.7287940   0.7292440   0.7287940   0.7292440
 TTTTTTTTTTTTTTTTTTTTTTTTTTTTTT MOQGAD      TELAPSE       60.65 TCPU       51.69
 TTTTTTTTTTTTTTTTTTTTTTTTTTTTTT SHELLX2     TELAPSE       71.48 TCPU       60.04
 TTTTTTTTTTTTTTTTTTTTTTTTTTTTTT MONMO3      TELAPSE       71.72 TCPU       60.28
 CYC   6 ETOT(AU) -4.476811795965E+02 DETOT -1.48E-04 tst  2.04E-06 PX  1.64E-03
 TTTTTTTTTTTTTTTTTTTTTTTTTTTTTT FDIK        TELAPSE       71.73 TCPU       60.29
 INSULATING STATE
 TOP OF VALENCE BANDS -    BAND     32; K    1; EIG -3.8411504E-01 AU
 BOTTOM OF VIRTUAL BANDS - BAND     33; K    1; EIG  2.0696566E-01 AU
 TTTTTTTTTTTTTTTTTTTTTTTTTTTTTT PDIG        TELAPSE       71.74 TCPU       60.30
 CHARGE NORMALIZATION FACTOR   1.00000000
 TOTAL ATOMIC CHARGES:
   4.8051055   8.7798057   7.7490924   7.7490924   0.7289985   0.7294535
   0.7289985   0.7294535   4.8051055   8.7798057   7.7490924   7.7490924
   0.7289985   0.7294535   0.7289985   0.7294535
 TTTTTTTTTTTTTTTTTTTTTTTTTTTTTT MOQGAD      TELAPSE       71.76 TCPU       60.32
 TTTTTTTTTTTTTTTTTTTTTTTTTTTTTT SHELLX2     TELAPSE       82.49 TCPU       68.73
 TTTTTTTTTTTTTTTTTTTTTTTTTTTTTT MONMO3      TELAPSE       82.78 TCPU       68.95
 CYC   7 ETOT(AU) -4.476812226633E+02 DETOT -4.31E-05 tst  6.64E-07 PX  9.27E-04
 TTTTTTTTTTTTTTTTTTTTTTTTTTTTTT FDIK        TELAPSE       82.82 TCPU       68.97
 INSULATING STATE
 TOP OF VALENCE BANDS -    BAND     32; K    1; EIG -3.8421889E-01 AU
 BOTTOM OF VIRTUAL BANDS - BAND     33; K    1; EIG  2.0723771E-01 AU
 TTTTTTTTTTTTTTTTTTTTTTTTTTTTTT PDIG        TELAPSE       82.83 TCPU       68.97
 CHARGE NORMALIZATION FACTOR   1.00000000
 TOTAL ATOMIC CHARGES:
   4.8044819   8.7797805   7.7491416   7.7491416   0.7291314   0.7295958
   0.7291314   0.7295958   4.8044819   8.7797805   7.7491416   7.7491416
   0.7291314   0.7295958   0.7291314   0.7295958
 TTTTTTTTTTTTTTTTTTTTTTTTTTTTTT MOQGAD      TELAPSE       82.89 TCPU       68.99
 TTTTTTTTTTTTTTTTTTTTTTTTTTTTTT SHELLX2     TELAPSE       92.58 TCPU       77.40
 TTTTTTTTTTTTTTTTTTTTTTTTTTTTTT MONMO3      TELAPSE       92.82 TCPU       77.63
 CYC   8 ETOT(AU) -4.476812367286E+02 DETOT -1.41E-05 tst  2.95E-07 PX  5.66E-04
 TTTTTTTTTTTTTTTTTTTTTTTTTTTTTT FDIK        TELAPSE       92.84 TCPU       77.65
 INSULATING STATE
 TOP OF VALENCE BANDS -    BAND     32; K    1; EIG -3.8428163E-01 AU
 BOTTOM OF VIRTUAL BANDS - BAND     33; K    1; EIG  2.0736017E-01 AU
 TTTTTTTTTTTTTTTTTTTTTTTTTTTTTT PDIG        TELAPSE       92.84 TCPU       77.65
 CHARGE NORMALIZATION FACTOR   1.00000000
 TOTAL ATOMIC CHARGES:
   4.8041895   8.7797352   7.7491216   7.7491216   0.7292219   0.7296942
   0.7292219   0.7296942   4.8041895   8.7797352   7.7491216   7.7491216
   0.7292219   0.7296942   0.7292219   0.7296942
 TTTTTTTTTTTTTTTTTTTTTTTTTTTTTT MOQGAD      TELAPSE       92.87 TCPU       77.67
 TTTTTTTTTTTTTTTTTTTTTTTTTTTTTT SHELLX2     TELAPSE      102.75 TCPU       86.06
 TTTTTTTTTTTTTTTTTTTTTTTTTTTTTT MONMO3      TELAPSE      103.00 TCPU       86.30
 CYC   9 ETOT(AU) -4.476812419309E+02 DETOT -5.20E-06 tst  1.29E-07 PX  3.50E-04
 TTTTTTTTTTTTTTTTTTTTTTTTTTTTTT FDIK        TELAPSE      103.01 TCPU       86.31
 INSULATING STATE
 TOP OF VALENCE BANDS -    BAND     32; K    1; EIG -3.8432457E-01 AU
 BOTTOM OF VIRTUAL BANDS - BAND     33; K    1; EIG  2.0741757E-01 AU
 TTTTTTTTTTTTTTTTTTTTTTTTTTTTTT PDIG        TELAPSE      103.01 TCPU       86.31
 CHARGE NORMALIZATION FACTOR   1.00000000
 TOTAL ATOMIC CHARGES:
   4.8040550   8.7796831   7.7490895   7.7490895   0.7292801   0.7297614
   0.7292801   0.7297614   4.8040550   8.7796831   7.7490895   7.7490895
   0.7292801   0.7297614   0.7292801   0.7297614
 TTTTTTTTTTTTTTTTTTTTTTTTTTTTTT MOQGAD      TELAPSE      103.04 TCPU       86.34
 TTTTTTTTTTTTTTTTTTTTTTTTTTTTTT SHELLX2     TELAPSE      113.11 TCPU       94.75
 TTTTTTTTTTTTTTTTTTTTTTTTTTTTTT MONMO3      TELAPSE      113.38 TCPU       94.99
 CYC  10 ETOT(AU) -4.476812440650E+02 DETOT -2.13E-06 tst  5.76E-08 PX  2.12E-04
 TTTTTTTTTTTTTTTTTTTTTTTTTTTTTT FDIK        TELAPSE      113.39 TCPU       95.01
 INSULATING STATE
 TOP OF VALENCE BANDS -    BAND     32; K    1; EIG -3.8435386E-01 AU
 BOTTOM OF VIRTUAL BANDS - BAND     33; K    1; EIG  2.0744546E-01 AU
 TTTTTTTTTTTTTTTTTTTTTTTTTTTTTT PDIG        TELAPSE      113.40 TCPU       95.01
 CHARGE NORMALIZATION FACTOR   1.00000000
 TOTAL ATOMIC CHARGES:
   4.8039890   8.7796405   7.7490608   7.7490608   0.7293182   0.7298063
   0.7293182   0.7298063   4.8039890   8.7796405   7.7490608   7.7490608
   0.7293182   0.7298063   0.7293182   0.7298063
 TTTTTTTTTTTTTTTTTTTTTTTTTTTTTT MOQGAD      TELAPSE      113.42 TCPU       95.03
 TTTTTTTTTTTTTTTTTTTTTTTTTTTTTT SHELLX2     TELAPSE      126.19 TCPU      103.32
 TTTTTTTTTTTTTTTTTTTTTTTTTTTTTT MONMO3      TELAPSE      126.42 TCPU      103.56
 CYC  11 ETOT(AU) -4.476812450249E+02 DETOT -9.60E-07 tst  2.57E-08 PX  1.30E-04
 TTTTTTTTTTTTTTTTTTTTTTTTTTTTTT FDIK        TELAPSE      126.43 TCPU      103.57
 INSULATING STATE
 TOP OF VALENCE BANDS -    BAND     32; K    1; EIG -3.8437379E-01 AU
 BOTTOM OF VIRTUAL BANDS - BAND     33; K    1; EIG  2.0745952E-01 AU
 TTTTTTTTTTTTTTTTTTTTTTTTTTTTTT PDIG        TELAPSE      126.43 TCPU      103.57
 CHARGE NORMALIZATION FACTOR   1.00000000
 TOTAL ATOMIC CHARGES:
   4.8039569   8.7796080   7.7490376   7.7490376   0.7293429   0.7298371
   0.7293429   0.7298371   4.8039569   8.7796080   7.7490376   7.7490376
   0.7293429   0.7298371   0.7293429   0.7298371
 TTTTTTTTTTTTTTTTTTTTTTTTTTTTTT MOQGAD      TELAPSE      126.46 TCPU      103.60
 TTTTTTTTTTTTTTTTTTTTTTTTTTTTTT SHELLX2     TELAPSE      135.39 TCPU      111.91
 +++ ENERGIES IN A.U. +++
 ::: EXT EL-POLE                                  -5.9275907693698E+02
 ::: EXT EL-SPHEROPOLE                             7.1542976720130E+00
 ::: BIELET ZONE E-E                               6.8312595146235E+02
 ::: TOTAL E-E                                     9.7521172197387E+01
 ::: TOTAL E-N + N-E                              -9.1688661829764E+02
 ::: TOTAL N-N                                    -7.5336138747023E+01
 ::: KINETIC ENERGY                                4.4702033936280E+02
 ::: TOTAL   ENERGY                               -4.4768124548448E+02
 ::: VIRIAL COEFFICIENT                            9.9926131110878E-01
 TTTTTTTTTTTTTTTTTTTTTTTTTTTTTT MONMO3      TELAPSE      135.62 TCPU      112.14
 CYC  12 ETOT(AU) -4.476812454845E+02 DETOT -4.60E-07 tst  1.15E-08 PX  1.30E-04

 == SCF ENDED - CONVERGENCE ON ENERGY      E(AU) -4.4768124548448E+02 CYCLES  12

 TOTAL ENERGY(HF)(AU)(  12) -4.4768124548448E+02 DE-4.6E-07 tst 1.1E-08 PX 1.3E-04

 NEIGHBORS OF THE NON-EQUIVALENT ATOMS

 N = NUMBER OF NEIGHBORS AT DISTANCE R
    ATOM  N     R/ANG      R/AU   NEIGHBORS (ATOM LABELS AND CELL INDICES)
   1 C    1     1.2614     2.3837    2 O    0 0 0
   1 C    2     1.3447     2.5411    3 N    0 1 0    4 N    0 1 0
   1 C    2     2.0367     3.8488    6 H    0 1 0    8 H    0 1 0
   1 C    2     2.0477     3.8696    5 H    0 1 0    7 H    0 1 0
   1 C    2     2.6461     5.0004   14 H    0 1 1   16 H    1 0 1
   1 C    2     3.1089     5.8750   13 H    0 1 0   15 H    1 0 0

   2 O    1     1.2614     2.3837    1 C    0 0 0
   2 O    2     1.9922     3.7647   14 H    0 1 1   16 H    1 0 1
   2 O    2     2.0582     3.8895    5 H    0 1 1    7 H    0 1 1
   2 O    2     2.2726     4.2946    3 N    0 1 0    4 N    0 1 0
   2 O    2     2.5002     4.7246    6 H    0 1 0    8 H    0 1 0
   2 O    2     2.9550     5.5842    3 N    0 1 1    4 N    0 1 1

   3 N    1     1.0053     1.8997    5 H    0 0 0
   3 N    1     1.0092     1.9070    6 H    0 0 0
   3 N    1     1.3447     2.5411    1 C    0-1 0
   3 N    1     2.2726     4.2946    2 O    0-1 0
   3 N    1     2.2965     4.3397    4 N    0 0 0
   3 N    1     2.4939     4.7127    7 H    0 0 0

   5 H    1     1.0053     1.8997    3 N    0 0 0
   5 H    1     1.7473     3.3019    6 H    0 0 0
   5 H    1     2.0477     3.8696    1 C    0-1 0
   5 H    1     2.0582     3.8895    2 O    0-1-1
   5 H    1     2.2682     4.2862    7 H    0 0 0
   5 H    1     2.4939     4.7127    4 N    0 0 0

   6 H    1     1.0092     1.9070    3 N    0 0 0
   6 H    1     1.7473     3.3019    5 H    0 0 0
   6 H    1     1.9922     3.7647   10 O    0 0 1
   6 H    1     2.0367     3.8488    1 C    0-1 0
   6 H    2     2.4984     4.7214   13 H    1 0 0   15 H    1 0 0
   6 H    1     2.5002     4.7246    2 O    0-1 0

 TTTTTTTTTTTTTTTTTTTTTTTTTTTTTT AFTER FIRST TELAPSE      135.62 TCPU      112.14
 MMMMMMMMMMMMMMMMMMMMMMMMMMMMMMMMMMMMMMMMMMMMMMMMMMMMMMMMMMMMMMMMMMMMMMMMMMMMMMM
     ALPHA+BETA ELECTRONS
 MULLIKEN POPULATION ANALYSIS - NO. OF ELECTRONS   64.000000

  ATOM    Z CHARGE  A.O. POPULATION

   1 C    6  4.804  1.997  0.404  0.434  0.434  0.575  0.328  0.236  0.236
                    0.011  0.028  0.043  0.043  0.024  0.012
   2 O    8  8.780  1.997  0.408  0.744  0.744  0.606  1.517  0.976  0.976
                    0.781  0.016  0.007  0.007  0.000  0.000
   3 N    7  7.749  1.997  0.358  0.649  0.649  0.581  1.226  0.811  0.811
                    0.644  0.005  0.005  0.005  0.003  0.005
   4 N    7  7.749  1.997  0.358  0.649  0.649  0.581  1.226  0.811  0.811
                    0.644  0.005  0.005  0.005  0.003  0.005
   5 H    1  0.729  0.432  0.262  0.005  0.005  0.027
   6 H    1  0.730  0.426  0.268  0.014  0.014  0.008
   7 H    1  0.729  0.432  0.262  0.005  0.005  0.027
   8 H    1  0.730  0.426  0.268  0.014  0.014  0.008
   9 C    6  4.804  1.997  0.404  0.434  0.434  0.575  0.328  0.236  0.236
                    0.011  0.028  0.043  0.043  0.024  0.012
  10 O    8  8.780  1.997  0.408  0.744  0.744  0.606  1.517  0.976  0.976
                    0.781  0.016  0.007  0.007  0.000  0.000
  11 N    7  7.749  1.997  0.358  0.649  0.649  0.581  1.226  0.811  0.811
                    0.644  0.005  0.005  0.005  0.003  0.005
  12 N    7  7.749  1.997  0.358  0.649  0.649  0.581  1.226  0.811  0.811
                    0.644  0.005  0.005  0.005  0.003  0.005
  13 H    1  0.729  0.432  0.262  0.005  0.005  0.027
  14 H    1  0.730  0.426  0.268  0.014  0.014  0.008
  15 H    1  0.729  0.432  0.262  0.005  0.005  0.027
  16 H    1  0.730  0.426  0.268  0.014  0.014  0.008

  ATOM    Z CHARGE  SHELL POPULATION

   1 C    6  4.804  1.997  1.847  0.811  0.149
   2 O    8  8.780  1.997  2.502  4.250  0.030
   3 N    7  7.749  1.997  2.237  3.492  0.024
   4 N    7  7.749  1.997  2.237  3.492  0.024
   5 H    1  0.729  0.432  0.262  0.036
   6 H    1  0.730  0.426  0.268  0.037
   7 H    1  0.729  0.432  0.262  0.036
   8 H    1  0.730  0.426  0.268  0.037
   9 C    6  4.804  1.997  1.847  0.811  0.149
  10 O    8  8.780  1.997  2.502  4.250  0.030
  11 N    7  7.749  1.997  2.237  3.492  0.024
  12 N    7  7.749  1.997  2.237  3.492  0.024
  13 H    1  0.729  0.432  0.262  0.036
  14 H    1  0.730  0.426  0.268  0.037
  15 H    1  0.729  0.432  0.262  0.036
  16 H    1  0.730  0.426  0.268  0.037

 OVERLAP POPULATION CONDENSED TO ATOMS FOR FIRST   6 NEIGHBORS

 ATOM A   1 C    ATOM B     CELL      R(AB)/AU R(AB)/ANG    OVPOP(AB)
                  2 O    (  0  0  0)     2.384     1.261     0.490
                  3 N    (  0  1  0)     2.541     1.345     0.341
                  6 H    (  0  1  0)     3.849     2.037    -0.028
                  5 H    (  0  1  0)     3.870     2.048    -0.027
                 14 H    (  0  1  1)     5.000     2.646     0.001
                 13 H    (  0  1  0)     5.875     3.109     0.001

 ATOM A   2 O    ATOM B     CELL      R(AB)/AU R(AB)/ANG    OVPOP(AB)
                  1 C    (  0  0  0)     2.384     1.261     0.490
                 14 H    (  0  1  1)     3.765     1.992     0.045
                  5 H    (  0  1  1)     3.890     2.058     0.034
                  3 N    (  0  1  0)     4.295     2.273    -0.052
                  6 H    (  0  1  0)     4.725     2.500     0.002
                  3 N    (  0  1  1)     5.584     2.955    -0.006

 ATOM A   3 N    ATOM B     CELL      R(AB)/AU R(AB)/ANG    OVPOP(AB)
                  5 H    (  0  0  0)     1.900     1.005     0.343
                  6 H    (  0  0  0)     1.907     1.009     0.333
                  1 C    (  0 -1  0)     2.541     1.345     0.341
                  2 O    (  0 -1  0)     4.295     2.273    -0.052
                  4 N    (  0  0  0)     4.340     2.296    -0.078
                  7 H    (  0  0  0)     4.713     2.494    -0.001

 ATOM A   5 H    ATOM B     CELL      R(AB)/AU R(AB)/ANG    OVPOP(AB)
                  3 N    (  0  0  0)     1.900     1.005     0.343
                  6 H    (  0  0  0)     3.302     1.747    -0.017
                  1 C    (  0 -1  0)     3.870     2.048    -0.027
                  2 O    (  0 -1 -1)     3.890     2.058     0.034
                  7 H    (  0  0  0)     4.286     2.268    -0.003
                  4 N    (  0  0  0)     4.713     2.494    -0.001

 ATOM A   6 H    ATOM B     CELL      R(AB)/AU R(AB)/ANG    OVPOP(AB)
                  3 N    (  0  0  0)     1.907     1.009     0.333
                  5 H    (  0  0  0)     3.302     1.747    -0.017
                 10 O    (  0  0  1)     3.765     1.992     0.045
                  1 C    (  0 -1  0)     3.849     2.037    -0.028
                 13 H    (  1  0  0)     4.721     2.498     0.001
                  2 O    (  0 -1  0)     4.725     2.500     0.002
 EIGENVECTORS IN FORTRAN UNIT  8
 TTTTTTTTTTTTTTTTTTTTTTTTTTTTTT END         TELAPSE      135.70 TCPU      112.21
 EEEEEEEEEE TERMINATION  DATE 03 09 2025 TIME 18:26:58.3
